  -1.49999997E-02   0.00000000    
  -1.49849998E-02   0.00000000    
  -1.49699999E-02   0.00000000    
  -1.49550000E-02   0.00000000    
  -1.49400001E-02   0.00000000    
  -1.49250003E-02   0.00000000    
  -1.49100004E-02   0.00000000    
  -1.48949996E-02   0.00000000    
  -1.48799997E-02   0.00000000    
  -1.48649998E-02   0.00000000    
  -1.48499999E-02   0.00000000    
  -1.48350000E-02   0.00000000    
  -1.48200002E-02   0.00000000    
  -1.48050003E-02   0.00000000    
  -1.47900004E-02   0.00000000    
  -1.47749996E-02   0.00000000    
  -1.47599997E-02   0.00000000    
  -1.47449998E-02   0.00000000    
  -1.47299999E-02   0.00000000    
  -1.47150001E-02   0.00000000    
  -1.47000002E-02   0.00000000    
  -1.46850003E-02   0.00000000    
  -1.46700004E-02   0.00000000    
  -1.46549996E-02   0.00000000    
  -1.46399997E-02   0.00000000    
  -1.46249998E-02   0.00000000    
  -1.46100000E-02   0.00000000    
  -1.45950001E-02   0.00000000    
  -1.45800002E-02   0.00000000    
  -1.45650003E-02   0.00000000    
  -1.45500004E-02   0.00000000    
  -1.45349996E-02   0.00000000    
  -1.45199997E-02   0.00000000    
  -1.45049999E-02   0.00000000    
  -1.44900000E-02   0.00000000    
  -1.44750001E-02   0.00000000    
  -1.44600002E-02   0.00000000    
  -1.44450003E-02   0.00000000    
  -1.44300004E-02   0.00000000    
  -1.44149996E-02   0.00000000    
  -1.43999998E-02   0.00000000    
  -1.43849999E-02   0.00000000    
  -1.43700000E-02   0.00000000    
  -1.43550001E-02   0.00000000    
  -1.43400002E-02   0.00000000    
  -1.43250003E-02   0.00000000    
  -1.43100005E-02   0.00000000    
  -1.42949997E-02   0.00000000    
  -1.42799998E-02   0.00000000    
  -1.42649999E-02   0.00000000    
  -1.42500000E-02   0.00000000    
  -1.42350001E-02   0.00000000    
  -1.42200002E-02   0.00000000    
  -1.42050004E-02   0.00000000    
  -1.41899996E-02   0.00000000    
  -1.41749997E-02   0.00000000    
  -1.41599998E-02   0.00000000    
  -1.41449999E-02   0.00000000    
  -1.41300000E-02   0.00000000    
  -1.41150001E-02   0.00000000    
  -1.41000003E-02   0.00000000    
  -1.40850004E-02   0.00000000    
  -1.40699996E-02   0.00000000    
  -1.40549997E-02   0.00000000    
  -1.40399998E-02   0.00000000    
  -1.40249999E-02   0.00000000    
  -1.40100000E-02   0.00000000    
  -1.39950002E-02   0.00000000    
  -1.39800003E-02   0.00000000    
  -1.39650004E-02   0.00000000    
  -1.39499996E-02   0.00000000    
  -1.39349997E-02   0.00000000    
  -1.39199998E-02   0.00000000    
  -1.39049999E-02   0.00000000    
  -1.38900001E-02   0.00000000    
  -1.38750002E-02   0.00000000    
  -1.38600003E-02   0.00000000    
  -1.38450004E-02   0.00000000    
  -1.38299996E-02   0.00000000    
  -1.38149997E-02   0.00000000    
  -1.37999998E-02   0.00000000    
  -1.37850000E-02   0.00000000    
  -1.37700001E-02   0.00000000    
  -1.37550002E-02   0.00000000    
  -1.37400003E-02   0.00000000    
  -1.37250004E-02   0.00000000    
  -1.37099996E-02   0.00000000    
  -1.36949997E-02   0.00000000    
  -1.36799999E-02   0.00000000    
  -1.36650000E-02   0.00000000    
  -1.36500001E-02   0.00000000    
  -1.36350002E-02   0.00000000    
  -1.36200003E-02   0.00000000    
  -1.36050005E-02   0.00000000    
  -1.35899996E-02   0.00000000    
  -1.35749998E-02   0.00000000    
  -1.35599999E-02   0.00000000    
  -1.35450000E-02   0.00000000    
  -1.35300001E-02   0.00000000    
  -1.35150002E-02   0.00000000    
  -1.35000004E-02   0.00000000    
  -1.34849995E-02   0.00000000    
  -1.34699997E-02   0.00000000    
  -1.34549998E-02   0.00000000    
  -1.34399999E-02   0.00000000    
  -1.34250000E-02   0.00000000    
  -1.34100001E-02   0.00000000    
  -1.33950002E-02   0.00000000    
  -1.33800004E-02   0.00000000    
  -1.33649996E-02   0.00000000    
  -1.33499997E-02   0.00000000    
  -1.33349998E-02   0.00000000    
  -1.33199999E-02   0.00000000    
  -1.33050000E-02   0.00000000    
  -1.32900001E-02   0.00000000    
  -1.32750003E-02   0.00000000    
  -1.32600004E-02   0.00000000    
  -1.32449996E-02   0.00000000    
  -1.32299997E-02   0.00000000    
  -1.32149998E-02   0.00000000    
  -1.31999999E-02   0.00000000    
  -1.31850000E-02   0.00000000    
  -1.31700002E-02   0.00000000    
  -1.31550003E-02   0.00000000    
  -1.31400004E-02   0.00000000    
  -1.31249996E-02   0.00000000    
  -1.31099997E-02   0.00000000    
  -1.30949998E-02   0.00000000    
  -1.30799999E-02   0.00000000    
  -1.30650001E-02   0.00000000    
  -1.30500002E-02   0.00000000    
  -1.30350003E-02   0.00000000    
  -1.30200004E-02   0.00000000    
  -1.30049996E-02   0.00000000    
  -1.29899997E-02   0.00000000    
  -1.29749998E-02   0.00000000    
  -1.29600000E-02   0.00000000    
  -1.29450001E-02   0.00000000    
  -1.29300002E-02   0.00000000    
  -1.29150003E-02   0.00000000    
  -1.29000004E-02   0.00000000    
  -1.28849996E-02   0.00000000    
  -1.28699997E-02   0.00000000    
  -1.28549999E-02   0.00000000    
  -1.28400000E-02   0.00000000    
  -1.28250001E-02   0.00000000    
  -1.28100002E-02   0.00000000    
  -1.27950003E-02  -1.21634622E-34
  -1.27800005E-02   2.57270002E-34
  -1.27649996E-02   4.04538024E-34
  -1.27499998E-02   5.59946826E-34
  -1.27349999E-02   6.89588103E-34
  -1.27200000E-02   8.19055444E-34
  -1.27050001E-02   1.87208753E-33
  -1.26900002E-02   2.46473688E-33
  -1.26750004E-02   2.92426903E-33
  -1.26599995E-02   3.35641290E-33
  -1.26449997E-02   3.73284513E-33
  -1.26299998E-02   3.64827786E-33
  -1.26149999E-02   3.22477773E-33
  -1.26000000E-02   2.67566557E-33
  -1.25850001E-02   1.44656629E-33
  -1.25700003E-02   6.64310658E-34
  -1.25550004E-02  -1.76197658E-33
  -1.25399996E-02  -5.46840229E-33
  -1.25249997E-02  -9.60813744E-33
  -1.25099998E-02  -1.59844897E-32
  -1.24949999E-02  -2.32652769E-32
  -1.24800000E-02  -3.25468554E-32
  -1.24650002E-02  -4.38758791E-32
  -1.24500003E-02  -5.70080142E-32
  -1.24350004E-02  -7.19583334E-32
  -1.24199996E-02  -8.78076001E-32
  -1.24049997E-02  -9.94724714E-32
  -1.23899998E-02  -1.14745752E-31
  -1.23749999E-02  -1.30007971E-31
  -1.23600001E-02  -1.43979897E-31
  -1.23450002E-02  -1.62597388E-31
  -1.23300003E-02  -1.78997967E-31
  -1.23150004E-02  -1.95602154E-31
  -1.22999996E-02  -1.85276506E-31
  -1.22849997E-02  -1.66099303E-31
  -1.22699998E-02  -1.42994915E-31
  -1.22550000E-02  -1.06537275E-31
  -1.22400001E-02  -6.86695235E-32
  -1.22250002E-02  -3.39967660E-32
  -1.22100003E-02   3.27118596E-32
  -1.21950004E-02   9.69731000E-32
  -1.21799996E-02   1.62187258E-31
  -1.21649997E-02   2.29573130E-31
  -1.21499998E-02   3.51086637E-31
  -1.21350000E-02   4.91507854E-31
  -1.21200001E-02   7.22594809E-31
  -1.21050002E-02   9.69461412E-31
  -1.20900003E-02   1.26862200E-30
  -1.20750004E-02   1.64116127E-30
  -1.20599996E-02   2.05208456E-30
  -1.20449997E-02   2.52915528E-30
  -1.20299999E-02   3.05056357E-30
  -1.20150000E-02   3.63936662E-30
  -1.20000001E-02   4.27429419E-30
  -1.19850002E-02   5.01572192E-30
  -1.19700003E-02   5.83559481E-30
  -1.19550005E-02   6.66756194E-30
  -1.19399996E-02   7.55375077E-30
  -1.19249998E-02   8.50288892E-30
  -1.19099999E-02   9.39967488E-30
  -1.18950000E-02   1.02769089E-29
  -1.18800001E-02   1.10849080E-29
  -1.18650002E-02   1.17055795E-29
  -1.18500004E-02   1.20511779E-29
  -1.18349995E-02   1.21272265E-29
  -1.18199997E-02   1.09074854E-29
  -1.18049998E-02   8.92088268E-30
  -1.17899999E-02   6.38427345E-30
  -1.17750000E-02   2.83359120E-30
  -1.17600001E-02  -1.71203154E-30
  -1.17450003E-02  -7.47002623E-30
  -1.17300004E-02  -1.45578923E-29
  -1.17149996E-02  -2.30256646E-29
  -1.16999997E-02  -3.22779389E-29
  -1.16849998E-02  -4.34983255E-29
  -1.16699999E-02  -5.68287038E-29
  -1.16550000E-02  -7.23667695E-29
  -1.16400002E-02  -8.86244409E-29
  -1.16250003E-02  -1.05928193E-28
  -1.16100004E-02  -1.23938623E-28
  -1.15949996E-02  -1.41353857E-28
  -1.15799997E-02  -1.57857500E-28
  -1.15649998E-02  -1.72866874E-28
  -1.15499999E-02  -1.85344011E-28
  -1.15350001E-02  -1.93651052E-28
  -1.15200002E-02  -1.96906777E-28
  -1.15050003E-02  -1.94229698E-28
  -1.14900004E-02  -1.83910120E-28
  -1.14749996E-02  -1.64940649E-28
  -1.14599997E-02  -1.35663902E-28
  -1.14449998E-02  -9.54178699E-29
  -1.14300000E-02  -4.30568060E-29
  -1.14150001E-02   2.18917718E-29
  -1.14000002E-02   9.86127951E-29
  -1.13850003E-02   1.87508888E-28
  -1.13700004E-02   2.88033705E-28
  -1.13549996E-02   3.97098419E-28
  -1.13399997E-02   5.14346555E-28
  -1.13249999E-02   6.36435346E-28
  -1.13100000E-02   7.59761500E-28
  -1.12950001E-02   8.80433578E-28
  -1.12800002E-02   9.93619807E-28
  -1.12650003E-02   1.09407333E-27
  -1.12500004E-02   1.17624948E-27
  -1.12349996E-02   1.23377884E-27
  -1.12199998E-02   1.26098982E-27
  -1.12049999E-02   1.25203935E-27
  -1.11900000E-02   1.20026217E-27
  -1.11750001E-02   1.10241116E-27
  -1.11600002E-02   9.55991950E-28
  -1.11450003E-02   7.60887880E-28
  -1.11300005E-02   5.16203296E-28
  -1.11149997E-02   2.27237417E-28
  -1.10999998E-02  -1.00426203E-28
  -1.10849999E-02  -4.57713285E-28
  -1.10700000E-02  -8.32554189E-28
  -1.10550001E-02  -1.21001123E-27
  -1.10400002E-02  -1.57258641E-27
  -1.10250004E-02  -1.90045875E-27
  -1.10099996E-02  -2.17233958E-27
  -1.09949997E-02  -2.36642614E-27
  -1.09799998E-02  -2.46109156E-27
  -1.09649999E-02  -2.43673587E-27
  -1.09500000E-02  -2.27622328E-27
  -1.09350001E-02  -1.96867288E-27
  -1.09200003E-02  -1.50776616E-27
  -1.09050004E-02  -8.95981418E-28
  -1.08899996E-02  -1.46535872E-28
  -1.08749997E-02   7.18901981E-28
  -1.08599998E-02   1.66415543E-27
  -1.08449999E-02   2.64108859E-27
  -1.08300000E-02   3.58852132E-27
  -1.08150002E-02   4.43279355E-27
  -1.08000003E-02   5.08981607E-27
  -1.07850004E-02   5.46568826E-27
  -1.07699996E-02   5.45985886E-27
  -1.07549997E-02   4.97051049E-27
  -1.07399998E-02   3.89921966E-27
  -1.07249999E-02   2.15588386E-27
  -1.07100001E-02  -3.34418427E-28
  -1.06950002E-02  -3.62376931E-27
  -1.06800003E-02  -7.73465638E-27
  -1.06650004E-02  -1.26511411E-26
  -1.06499996E-02  -1.83120608E-26
  -1.06349997E-02  -2.46053189E-26
  -1.06199998E-02  -3.13624133E-26
  -1.06050000E-02  -3.83541245E-26
  -1.05900001E-02  -4.52893674E-26
  -1.05750002E-02  -5.18163594E-26
  -1.05600003E-02  -5.75273364E-26
  -1.05450004E-02  -6.19661766E-26
  -1.05299996E-02  -6.46396262E-26
  -1.05149997E-02  -6.50336006E-26
  -1.04999999E-02  -6.26328318E-26
  -1.04850000E-02  -5.69440662E-26
  -1.04700001E-02  -4.75227836E-26
  -1.04550002E-02  -3.40008387E-26
  -1.04400003E-02  -1.61195591E-26
  -1.04250005E-02   6.23916407E-27
  -1.04099996E-02   3.30222321E-26
  -1.03949998E-02   6.39762373E-26
  -1.03799999E-02   9.86225152E-26
  -1.03650000E-02   1.36236710E-25
  -1.03500001E-02   1.75839031E-25
  -1.03350002E-02   2.16192754E-25
  -1.03200004E-02   2.55810631E-25
  -1.03049995E-02   2.92977172E-25
  -1.02899997E-02   3.25784516E-25
  -1.02749998E-02   3.52181799E-25
  -1.02599999E-02   3.70038183E-25
  -1.02450000E-02   3.77220688E-25
  -1.02300001E-02   3.71684856E-25
  -1.02150002E-02   3.51577137E-25
  -1.02000004E-02   3.15342660E-25
  -1.01849996E-02   2.61838983E-25
  -1.01699997E-02   1.90449179E-25
  -1.01549998E-02   1.01190541E-25
  -1.01399999E-02  -5.18883237E-27
  -1.01250000E-02  -1.27128830E-25
  -1.01100001E-02  -2.62200207E-25
  -1.00950003E-02  -4.07073576E-25
  -1.00800004E-02  -5.57526902E-25
  -1.00649996E-02  -7.08489143E-25
  -1.00499997E-02  -8.54129580E-25
  -1.00349998E-02  -9.87989711E-25
  -1.00199999E-02  -1.10316616E-24
  -1.00050000E-02  -1.19253464E-24
  -9.99000017E-03  -1.24902073E-24
  -9.97500028E-03  -1.26590284E-24
  -9.96000040E-03  -1.23714837E-24
  -9.94499959E-03  -1.15776303E-24
  -9.92999971E-03  -1.02415090E-24
  -9.91499983E-03  -8.34459925E-25
  -9.89999995E-03  -5.88903500E-25
  -9.88500006E-03  -2.90039971E-25
  -9.87000018E-03   5.70130422E-26
  -9.85500030E-03   4.44441128E-25
  -9.84000042E-03   8.61695545E-25
  -9.82499961E-03   1.29556263E-24
  -9.80999973E-03   1.73036127E-24
  -9.79499985E-03   2.14827197E-24
  -9.77999996E-03   2.52979508E-24
  -9.76500008E-03   2.85435592E-24
  -9.75000020E-03   3.10101774E-24
  -9.73500032E-03   3.24932339E-24
  -9.72000044E-03   3.28021144E-24
  -9.70499963E-03   3.17700713E-24
  -9.68999974E-03   2.92643119E-24
  -9.67499986E-03   2.51960260E-24
  -9.65999998E-03   1.95297939E-24
  -9.64500010E-03   1.22920060E-24
  -9.63000022E-03   3.57771100E-25
  -9.61500034E-03  -6.44452669E-25
  -9.60000046E-03  -1.75303096E-24
  -9.58499964E-03  -2.93598370E-24
  -9.56999976E-03  -4.15417584E-24
  -9.55499988E-03  -5.36202602E-24
  -9.54000000E-03  -6.50858920E-24
  -9.52500012E-03  -7.53898590E-24
  -9.51000024E-03  -8.39617005E-24
  -9.49500035E-03  -9.02299734E-24
  -9.47999954E-03  -9.36455361E-24
  -9.46499966E-03  -9.37064677E-24
  -9.44999978E-03  -8.99842354E-24
  -9.43499990E-03  -8.21496160E-24
  -9.42000002E-03  -6.99977738E-24
  -9.40500014E-03  -5.34709209E-24
  -9.39000025E-03  -3.26776085E-24
  -9.37500037E-03  -7.90747614E-25
  -9.35999956E-03   2.03599911E-24
  -9.34499968E-03   5.14531370E-24
  -9.32999980E-03   8.45137217E-24
  -9.31499992E-03   1.18510321E-23
  -9.30000003E-03   1.52260631E-23
  -9.28500015E-03   1.84461554E-23
  -9.27000027E-03   2.13728247E-23
  -9.25500039E-03   2.38639512E-23
  -9.23999958E-03   2.57790293E-23
  -9.22499970E-03   2.69847859E-23
  -9.20999981E-03   2.73611419E-23
  -9.19499993E-03   2.68072070E-23
  -9.18000005E-03   2.52470720E-23
  -9.16500017E-03   2.26351757E-23
  -9.15000029E-03   1.89609676E-23
  -9.13500041E-03   1.42525772E-23
  -9.11999959E-03   8.57930095E-24
  -9.10499971E-03   2.05263304E-24
  -9.08999983E-03  -5.17428146E-24
  -9.07499995E-03  -1.29088938E-23
  -9.06000007E-03  -2.09233601E-23
  -9.04500019E-03  -2.89602766E-23
  -9.03000031E-03  -3.67402406E-23
  -9.01500043E-03  -4.39707598E-23
  -8.99999961E-03  -5.03566393E-23
  -8.98499973E-03  -5.56109704E-23
  -8.96999985E-03  -5.94669982E-23
  -8.95499997E-03  -6.16898063E-23
  -8.94000009E-03  -6.20877267E-23
  -8.92500021E-03  -6.05227907E-23
  -8.91000032E-03  -5.69196717E-23
  -8.89500044E-03  -5.12727971E-23
  -8.87999963E-03  -4.36508987E-23
  -8.86499975E-03  -3.41989220E-23
  -8.84999987E-03  -2.31368439E-23
  -8.83499999E-03  -1.07550953E-23
  -8.82000010E-03   2.59297041E-24
  -8.80500022E-03   1.65021939E-23
  -8.79000034E-03   3.05291505E-23
  -8.77500046E-03   4.42086266E-23
  -8.75999965E-03   5.70716379E-23
  -8.74499977E-03   6.86648324E-23
  -8.72999988E-03   7.85701738E-23
  -8.71500000E-03   8.64241550E-23
  -8.70000012E-03   9.19354276E-23
  -8.68500024E-03   9.49000489E-23
  -8.67000036E-03   9.52132772E-23
  -8.65499955E-03   9.28772013E-23
  -8.63999967E-03   8.80034672E-23
  -8.62499978E-03   8.08106208E-23
  -8.60999990E-03   7.16156960E-23
  -8.59500002E-03   6.08201534E-23
  -8.58000014E-03   4.88905507E-23
  -8.56500026E-03   3.63341507E-23
  -8.55000038E-03   2.36709768E-23
  -8.53499956E-03   1.14028676E-23
  -8.51999968E-03  -1.84694679E-26
  -8.50499980E-03  -1.02230133E-23
  -8.48999992E-03  -1.89518011E-23
  -8.47500004E-03  -2.60818525E-23
  -8.46000016E-03  -3.16452909E-23
  -8.44500028E-03  -3.58404122E-23
  -8.43000039E-03  -3.90333582E-23
  -8.41499958E-03  -4.17492833E-23
  -8.39999970E-03  -4.46517771E-23
  -8.38499982E-03  -4.85111371E-23
  -8.36999994E-03  -5.41605202E-23
  -8.35500006E-03  -6.24423481E-23
  -8.34000017E-03  -7.41457370E-23
  -8.32500029E-03  -8.99373565E-23
  -8.31000041E-03  -1.10289141E-22
  -8.29499960E-03  -1.35406245E-22
  -8.27999972E-03  -1.65158721E-22
  -8.26499984E-03  -1.99022488E-22
  -8.24999996E-03  -2.36032635E-22
  -8.23500007E-03  -2.74754700E-22
  -8.22000019E-03  -3.13277668E-22
  -8.20500031E-03  -3.49231651E-22
  -8.19000043E-03  -3.79834153E-22
  -8.17499962E-03  -4.01965829E-22
  -8.15999974E-03  -4.12277288E-22
  -8.14499985E-03  -4.07324630E-22
  -8.12999997E-03  -3.83732388E-22
  -8.11500009E-03  -3.38379475E-22
  -8.10000021E-03  -2.68602645E-22
  -8.08500033E-03  -1.72408694E-22
  -8.07000045E-03  -4.86891735E-23
  -8.05499963E-03   1.02575867E-22
  -8.03999975E-03   2.80132787E-22
  -8.02499987E-03   4.81302188E-22
  -8.00999999E-03   7.01869868E-22
  -7.99500011E-03   9.36031301E-22
  -7.98000023E-03   1.17640169E-21
  -7.96500035E-03   1.41409979E-21
  -7.95000046E-03   1.63891157E-21
  -7.93499965E-03   1.83952932E-21
  -7.91999977E-03   2.00388865E-21
  -7.90499989E-03   2.11956833E-21
  -7.89000001E-03   2.17427494E-21
  -7.87500013E-03   2.15638009E-21
  -7.86000025E-03   2.05550565E-21
  -7.84500036E-03   1.86313466E-21
  -7.82999955E-03   1.57322270E-21
  -7.81499967E-03   1.18278437E-21
  -7.79999979E-03   6.92429892E-22
  -7.78499991E-03   1.06819529E-22
  -7.77000003E-03  -5.64993136E-22
  -7.75500014E-03  -1.30935764E-21
  -7.73999980E-03  -2.10798174E-21
  -7.72499992E-03  -2.93807909E-21
  -7.71000003E-03  -3.77271544E-21
  -7.69500015E-03  -4.58136365E-21
  -7.67999981E-03  -5.33067054E-21
  -7.66499992E-03  -5.98543206E-21
  -7.65000004E-03  -6.50975915E-21
  -7.63500016E-03  -6.86840051E-21
  -7.61999981E-03  -7.02818935E-21
  -7.60499993E-03  -6.95959071E-21
  -7.59000005E-03  -6.63825326E-21
  -7.57500017E-03  -6.04654932E-21
  -7.55999982E-03  -5.17501114E-21
  -7.54499994E-03  -4.02360279E-21
  -7.53000006E-03  -2.60276358E-21
  -7.51500018E-03  -9.34155705E-22
  -7.49999983E-03   9.48962056E-22
  -7.48499995E-03   3.00174918E-21
  -7.47000007E-03   5.16827495E-21
  -7.45500019E-03   7.38245530E-21
  -7.43999984E-03   9.56953053E-21
  -7.42499996E-03   1.16479971E-20
  -7.41000008E-03   1.35319623E-20
  -7.39500020E-03   1.51339802E-20
  -7.37999985E-03   1.63681579E-20
  -7.36499997E-03   1.71535449E-20
  -7.35000009E-03   1.74176562E-20
  -7.33500021E-03   1.70999962E-20
  -7.31999986E-03   1.61554901E-20
  -7.30499998E-03   1.45576324E-20
  -7.29000010E-03   1.23012460E-20
  -7.27500021E-03   9.40467521E-21
  -7.25999987E-03   5.91130125E-21
  -7.24499999E-03   1.89026401E-21
  -7.23000010E-03  -2.56373281E-21
  -7.21500022E-03  -7.33159500E-21
  -7.19999988E-03  -1.22719999E-20
  -7.18499999E-03  -1.72246485E-20
  -7.17000011E-03  -2.20143829E-20
  -7.15500023E-03  -2.64563767E-20
  -7.13999989E-03  -3.03619810E-20
  -7.12500000E-03  -3.35453113E-20
  -7.11000012E-03  -3.58302459E-20
  -7.09499978E-03  -3.70576785E-20
  -7.07999989E-03  -3.70926689E-20
  -7.06500001E-03  -3.58314414E-20
  -7.05000013E-03  -3.32076601E-20
  -7.03499978E-03  -2.91979505E-20
  -7.01999990E-03  -2.38262461E-20
  -7.00500002E-03  -1.71667911E-20
  -6.99000014E-03  -9.34551968E-21
  -6.97499979E-03  -5.39711065E-22
  -6.95999991E-03   9.02425856E-21
  -6.94500003E-03   1.90750903E-20
  -6.93000015E-03   2.93026826E-20
  -6.91499980E-03   3.93661263E-20
  -6.89999992E-03   4.89032506E-20
  -6.88500004E-03   5.75418370E-20
  -6.87000016E-03   6.49119258E-20
  -6.85499981E-03   7.06588730E-20
  -6.83999993E-03   7.44568340E-20
  -6.82500005E-03   7.60223185E-20
  -6.81000017E-03   7.51269925E-20
  -6.79499982E-03   7.16096137E-20
  -6.77999994E-03   6.53863850E-20
  -6.76500006E-03   5.64593613E-20
  -6.75000018E-03   4.49223664E-20
  -6.73499983E-03   3.09642687E-20
  -6.71999995E-03   1.48690368E-20
  -6.70500007E-03  -2.98727372E-21
  -6.69000018E-03  -2.21430402E-20
  -6.67499984E-03  -4.20608611E-20
  -6.65999996E-03  -6.21405218E-20
  -6.64500007E-03  -8.17348085E-20
  -6.63000019E-03  -1.00168244E-19
  -6.61499985E-03  -1.16757345E-19
  -6.59999996E-03  -1.30833051E-19
  -6.58500008E-03  -1.41763234E-19
  -6.57000020E-03  -1.48976236E-19
  -6.55499985E-03  -1.51982909E-19
  -6.53999997E-03  -1.50397785E-19
  -6.52500009E-03  -1.43957900E-19
  -6.51000021E-03  -1.32538529E-19
  -6.49499986E-03  -1.16165575E-19
  -6.47999998E-03  -9.50235490E-20
  -6.46500010E-03  -6.94588407E-20
  -6.45000022E-03  -3.99782917E-20
  -6.43499987E-03  -7.24205593E-21
  -6.41999999E-03   2.79483746E-20
  -6.40500011E-03   6.46675844E-20
  -6.39000023E-03   1.01888172E-19
  -6.37499988E-03   1.38507296E-19
  -6.36000000E-03   1.73376798E-19
  -6.34500012E-03   2.05336252E-19
  -6.32999977E-03   2.33247950E-19
  -6.31499989E-03   2.56033234E-19
  -6.30000001E-03   2.72708523E-19
  -6.28500013E-03   2.82419650E-19
  -6.26999978E-03   2.84475271E-19
  -6.25499990E-03   2.78375331E-19
  -6.24000002E-03   2.63835926E-19
  -6.22500014E-03   2.40808794E-19
  -6.20999979E-03   2.09494153E-19
  -6.19499991E-03   1.70347068E-19
  -6.18000003E-03   1.24076226E-19
  -6.16500014E-03   7.16354696E-20
  -6.14999980E-03   1.42071582E-20
  -6.13499992E-03  -4.68214406E-20
  -6.12000003E-03  -1.09889238E-19
  -6.10500015E-03  -1.73298681E-19
  -6.08999981E-03  -2.35258800E-19
  -6.07499992E-03  -2.93932918E-19
  -6.06000004E-03  -3.47489476E-19
  -6.04500016E-03  -3.94155724E-19
  -6.02999981E-03  -4.32270785E-19
  -6.01499993E-03  -4.60339142E-19
  -6.00000005E-03  -4.77080761E-19
  -5.98500017E-03  -4.81477433E-19
  -5.96999982E-03  -4.72814370E-19
  -5.95499994E-03  -4.50713655E-19
  -5.94000006E-03  -4.15160321E-19
  -5.92500018E-03  -3.66519413E-19
  -5.90999983E-03  -3.05542553E-19
  -5.89499995E-03  -2.33364039E-19
  -5.88000007E-03  -1.51485683E-19
  -5.86500019E-03  -6.17509197E-20
  -5.84999984E-03   3.36923265E-20
  -5.83499996E-03   1.32438621E-19
  -5.82000008E-03   2.31882119E-19
  -5.80500020E-03   3.29280827E-19
  -5.78999985E-03   4.21828844E-19
  -5.77499997E-03   5.06733066E-19
  -5.76000009E-03   5.81293059E-19
  -5.74500021E-03   6.42981914E-19
  -5.72999986E-03   6.89526902E-19
  -5.71499998E-03   7.18984613E-19
  -5.70000010E-03   7.29812666E-19
  -5.68500021E-03   7.20931331E-19
  -5.66999987E-03   6.91775954E-19
  -5.65499999E-03   6.42336817E-19
  -5.64000010E-03   5.73184311E-19
  -5.62500022E-03   4.85479694E-19
  -5.60999988E-03   3.80968397E-19
  -5.59500000E-03   2.61956080E-19
  -5.58000011E-03   1.31267605E-19
  -5.56500023E-03  -7.81125716E-21
  -5.54999989E-03  -1.51609139E-19
  -5.53500000E-03  -2.96158525E-19
  -5.52000012E-03  -4.37299009E-19
  -5.50499978E-03  -5.70791381E-19
  -5.48999989E-03  -6.92439715E-19
  -5.47500001E-03  -7.98217711E-19
  -5.46000013E-03  -8.84398040E-19
  -5.44499978E-03  -9.47676633E-19
  -5.42999990E-03  -9.85293498E-19
  -5.41500002E-03  -9.95140567E-19
  -5.40000014E-03  -9.75857539E-19
  -5.38499979E-03  -9.26907885E-19
  -5.36999991E-03  -8.48634938E-19
  -5.35500003E-03  -7.42293580E-19
  -5.34000015E-03  -6.10055318E-19
  -5.32499980E-03  -4.54985216E-19
  -5.30999992E-03  -2.80990281E-19
  -5.29500004E-03  -9.27388632E-20
  -5.28000016E-03   1.04448051E-19
  -5.26499981E-03   3.04731140E-19
  -5.24999993E-03   5.01911792E-19
  -5.23500005E-03   6.89608224E-19
  -5.22000017E-03   8.61450499E-19
  -5.20499982E-03   1.01128072E-18
  -5.18999994E-03   1.13336255E-18
  -5.17500006E-03   1.22258360E-18
  -5.16000018E-03   1.27465151E-18
  -5.14499983E-03   1.28627495E-18
  -5.12999995E-03   1.25531854E-18
  -5.11500007E-03   1.18093515E-18
  -5.10000018E-03   1.06365614E-18
  -5.08499984E-03   9.05449786E-19
  -5.06999996E-03   7.09730840E-19
  -5.05500007E-03   4.81326938E-19
  -5.04000019E-03   2.26394732E-19
  -5.02499985E-03  -4.77084464E-20
  -5.00999996E-03  -3.32602784E-19
  -4.99500008E-03  -6.19104208E-19
  -4.98000020E-03  -8.97484554E-19
  -4.96499985E-03  -1.15775952E-18
  -4.94999997E-03  -1.39000774E-18
  -4.93500009E-03  -1.58469773E-18
  -4.92000021E-03  -1.73302889E-18
  -4.90499986E-03  -1.82726307E-18
  -4.88999998E-03  -1.86104140E-18
  -4.87500010E-03  -1.82967554E-18
  -4.86000022E-03  -1.73039991E-18
  -4.84499987E-03  -1.56257406E-18
  -4.82999999E-03  -1.32783344E-18
  -4.81500011E-03  -1.03016577E-18
  -4.80000023E-03  -6.75921849E-19
  -4.78499988E-03  -2.73745989E-19
  -4.77000000E-03   1.65570875E-19
  -4.75500012E-03   6.29317821E-19
  -4.73999977E-03   1.10316674E-18
  -4.72499989E-03   1.57154370E-18
  -4.71000001E-03   2.01806861E-18
  -4.69500013E-03   2.42603988E-18
  -4.67999978E-03   2.77896662E-18
  -4.66499990E-03   3.06111586E-18
  -4.65000002E-03   3.25808328E-18
  -4.63500014E-03   3.35733544E-18
  -4.61999979E-03   3.34874248E-18
  -4.60499991E-03   3.22505644E-18
  -4.59000003E-03   2.98232505E-18
  -4.57500014E-03   2.62022735E-18
  -4.55999980E-03   2.14231197E-18
  -4.54499992E-03   1.55612567E-18
  -4.53000003E-03   8.73222106E-19
  -4.51500015E-03   1.09042865E-19
  -4.49999981E-03  -7.17333199E-19
  -4.48499992E-03  -1.58356987E-18
  -4.47000004E-03  -2.46458029E-18
  -4.45500016E-03  -3.33315468E-18
  -4.43999982E-03  -4.16068333E-18
  -4.42499993E-03  -4.91797710E-18
  -4.41000005E-03  -5.57615148E-18
  -4.39500017E-03  -6.10755009E-18
  -4.37999982E-03  -6.48668460E-18
  -4.36499994E-03  -6.69117109E-18
  -4.35000006E-03  -6.70261431E-18
  -4.33500018E-03  -6.50741747E-18
  -4.31999983E-03  -6.09750522E-18
  -4.30499995E-03  -5.47089523E-18
  -4.29000007E-03  -4.63213947E-18
  -4.27500019E-03  -3.59256203E-18
  -4.25999984E-03  -2.37032616E-18
  -4.24499996E-03  -9.90276021E-19
  -4.23000008E-03   5.16423229E-19
  -4.21500020E-03   2.11286454E-18
  -4.19999985E-03   3.75718710E-18
  -4.18499997E-03   5.40355652E-18
  -4.17000009E-03   7.00331473E-18
  -4.15500021E-03   8.50629280E-18
  -4.13999986E-03   9.86222794E-18
  -4.12499998E-03   1.10222578E-17
  -4.11000010E-03   1.19404671E-17
  -4.09500021E-03   1.25754159E-17
  -4.07999987E-03   1.28916123E-17
  -4.06499999E-03   1.28608784E-17
  -4.05000011E-03   1.24635919E-17
  -4.03500022E-03   1.16897098E-17
  -4.01999988E-03   1.05395540E-17
  -4.00500000E-03   9.02436016E-18
  -3.99000011E-03   7.16649017E-18
  -3.97500023E-03   4.99934934E-18
  -3.95999989E-03   2.56696002E-18
  -3.94500000E-03  -7.67945433E-20
  -3.93000012E-03  -2.86925876E-18
  -3.91499978E-03  -5.74039646E-18
  -3.89999989E-03  -8.61447479E-18
  -3.88500001E-03  -1.14119839E-17
  -3.86999990E-03  -1.40517472E-17
  -3.85500002E-03  -1.64532146E-17
  -3.83999990E-03  -1.85387818E-17
  -3.82500002E-03  -2.02361581E-17
  -3.80999991E-03  -2.14806646E-17
  -3.79500003E-03  -2.22174261E-17
  -3.77999991E-03  -2.24033448E-17
  -3.76500003E-03  -2.20088128E-17
  -3.74999992E-03  -2.10191127E-17
  -3.73500003E-03  -1.94354191E-17
  -3.71999992E-03  -1.72753859E-17
  -3.70500004E-03  -1.45732862E-17
  -3.68999992E-03  -1.13796279E-17
  -3.67500004E-03  -7.76033554E-18
  -3.65999993E-03  -3.79541981E-18
  -3.64500005E-03   4.22809467E-19
  -3.62999993E-03   4.79193877E-18
  -3.61500005E-03   9.20202697E-18
  -3.59999994E-03   1.35384982E-17
  -3.58500006E-03   1.76852208E-17
  -3.56999994E-03   2.15277874E-17
  -3.55500006E-03   2.49568117E-17
  -3.53999995E-03   2.78711658E-17
  -3.52500007E-03   3.01811206E-17
  -3.50999995E-03   3.18111826E-17
  -3.49500007E-03   3.27026252E-17
  -3.47999996E-03   3.28155850E-17
  -3.46500007E-03   3.21306398E-17
  -3.44999996E-03   3.06498541E-17
  -3.43500008E-03   2.83971733E-17
  -3.41999996E-03   2.54181700E-17
  -3.40500008E-03   2.17791990E-17
  -3.38999997E-03   1.75657908E-17
  -3.37500009E-03   1.28805471E-17
  -3.35999997E-03   7.84038925E-18
  -3.34500009E-03   2.57334276E-18
  -3.32999998E-03  -2.78509706E-18
  -3.31500010E-03  -8.09589293E-18
  -3.29999998E-03  -1.32206085E-17
  -3.28500010E-03  -1.80255890E-17
  -3.26999999E-03  -2.23860832E-17
  -3.25500011E-03  -2.61901710E-17
  -3.23999999E-03  -2.93423297E-17
  -3.22500011E-03  -3.17666108E-17
  -3.21000000E-03  -3.34091500E-17
  -3.19500011E-03  -3.42400661E-17
  -3.18000000E-03  -3.42546013E-17
  -3.16499989E-03  -3.34734649E-17
  -3.15000000E-03  -3.19422940E-17
  -3.13499989E-03  -2.97303039E-17
  -3.12000001E-03  -2.69280807E-17
  -3.10499989E-03  -2.36446650E-17
  -3.09000001E-03  -2.00038246E-17
  -3.07499990E-03  -1.61398240E-17
  -3.06000002E-03  -1.21926836E-17
  -3.04499990E-03  -8.30313807E-18
  -3.03000002E-03  -4.60738691E-18
  -3.01499991E-03  -1.23192153E-18
  -3.00000003E-03   1.71148642E-18
  -2.98499991E-03   4.13040769E-18
  -2.97000003E-03   5.95584351E-18
  -2.95499992E-03   7.14554016E-18
  -2.94000003E-03   7.68652621E-18
  -2.92499992E-03   7.59655378E-18
  -2.91000004E-03   6.92454232E-18
  -2.89499993E-03   5.74982508E-18
  -2.88000004E-03   4.18025359E-18
  -2.86499993E-03   2.34907693E-18
  -2.85000005E-03   4.10800950E-19
  -2.83499993E-03  -1.46405044E-18
  -2.82000005E-03  -3.09504371E-18
  -2.80499994E-03  -4.29862727E-18
  -2.79000006E-03  -4.89552163E-18
  -2.77499994E-03  -4.71832010E-18
  -2.76000006E-03  -3.61921876E-18
  -2.74499995E-03  -1.47745738E-18
  -2.73000007E-03   1.79369215E-18
  -2.71499995E-03   6.24061988E-18
  -2.70000007E-03   1.18642648E-17
  -2.68499996E-03   1.86160504E-17
  -2.67000007E-03   2.63953664E-17
  -2.65499996E-03   3.50487113E-17
  -2.64000008E-03   4.43705372E-17
  -2.62499996E-03   5.41059500E-17
  -2.61000008E-03   6.39553021E-17
  -2.59499997E-03   7.35805875E-17
  -2.58000009E-03   8.26135718E-17
  -2.56499997E-03   9.06655133E-17
  -2.55000009E-03   9.73383131E-17
  -2.53499998E-03   1.02236678E-16
  -2.52000010E-03   1.04981118E-16
  -2.50499998E-03   1.05221404E-16
  -2.49000010E-03   1.02649997E-16
  -2.47499999E-03   9.70152164E-17
  -2.46000011E-03   8.81334605E-17
  -2.44499999E-03   7.59003195E-17
  -2.43000011E-03   6.03000704E-17
  -2.41500000E-03   4.14130488E-17
  -2.40000011E-03   1.94206953E-17
  -2.38500000E-03  -5.39183868E-18
  -2.36999989E-03  -3.26362920E-17
  -2.35500000E-03  -6.18246635E-17
  -2.33999989E-03  -9.23758052E-17
  -2.32500001E-03  -1.23624948E-16
  -2.30999989E-03  -1.54836498E-16
  -2.29500001E-03  -1.85219212E-16
  -2.27999990E-03  -2.13944111E-16
  -2.26500002E-03  -2.40164572E-16
  -2.24999990E-03  -2.63037823E-16
  -2.23500002E-03  -2.81747749E-16
  -2.21999991E-03  -2.95528392E-16
  -2.20500003E-03  -3.03687040E-16
  -2.18999991E-03  -3.05626878E-16
  -2.17500003E-03  -3.00868194E-16
  -2.15999992E-03  -2.89067596E-16