  -1.49999997E-02   0.00000000    
  -1.49849998E-02   0.00000000    
  -1.49699999E-02   0.00000000    
  -1.49550000E-02   0.00000000    
  -1.49400001E-02   0.00000000    
  -1.49250003E-02   0.00000000    
  -1.49100004E-02  -2.14350240E-29
  -1.48949996E-02  -2.75353358E-28
  -1.48799997E-02  -1.90021031E-27
  -1.48649998E-02  -9.34853328E-27
  -1.48499999E-02  -3.67194629E-26
  -1.48350000E-02  -1.22332186E-25
  -1.48200002E-02  -3.58852111E-25
  -1.48050003E-02  -9.50400883E-25
  -1.47900004E-02  -2.31339416E-24
  -1.47749996E-02  -5.24422345E-24
  -1.47599997E-02  -1.11839422E-23
  -1.47449998E-02  -2.26172669E-23
  -1.47299999E-02  -4.36496303E-23
  -1.47150001E-02  -8.08103999E-23
  -1.47000002E-02  -1.44131489E-22
  -1.46850003E-02  -2.48547150E-22
  -1.46700004E-02  -4.15649044E-22
  -1.46549996E-02  -6.75813679E-22
  -1.46399997E-02  -1.07068776E-21
  -1.46249998E-02  -1.65597934E-21
  -1.46100000E-02  -2.50444844E-21
  -1.45950001E-02  -3.70892439E-21
  -1.45800002E-02  -5.38510654E-21
  -1.45650003E-02  -7.67380786E-21
  -1.45500004E-02  -1.07422263E-20
  -1.45349996E-02  -1.47836918E-20
  -1.45199997E-02  -2.00152974E-20
  -1.45049999E-02  -2.66727022E-20
  -1.44900000E-02  -3.50012784E-20
  -1.44750001E-02  -4.52428569E-20
  -1.44600002E-02  -5.76171299E-20
  -1.44450003E-02  -7.22969362E-20
  -1.44300004E-02  -8.93767359E-20
  -1.44149996E-02  -1.08833433E-19
  -1.43999998E-02  -1.30479534E-19
  -1.43849999E-02  -1.53907900E-19
  -1.43700000E-02  -1.78428803E-19
  -1.43550001E-02  -2.02999596E-19
  -1.43400002E-02  -2.26148155E-19
  -1.43250003E-02  -2.45891224E-19
  -1.43100005E-02  -2.59650960E-19
  -1.42949997E-02  -2.64171192E-19
  -1.42799998E-02  -2.55437328E-19
  -1.42649999E-02  -2.28604184E-19
  -1.42500000E-02  -1.77937562E-19
  -1.42350001E-02  -9.67702314E-20
  -1.42200002E-02   2.25133812E-20
  -1.42050004E-02   1.88468437E-19
  -1.41899996E-02   4.10540310E-19
  -1.41749997E-02   6.98975424E-19
  -1.41599998E-02   1.06468050E-18
  -1.41449999E-02   1.51903220E-18
  -1.41300000E-02   2.07361813E-18
  -1.41150001E-02   2.73991873E-18
  -1.41000003E-02   3.52892289E-18
  -1.40850004E-02   4.45066679E-18
  -1.40699996E-02   5.51369314E-18
  -1.40549997E-02   6.72447173E-18
  -1.40399998E-02   8.08671619E-18
  -1.40249999E-02   9.60065193E-18
  -1.40100000E-02   1.12622493E-17
  -1.39950002E-02   1.30623813E-17
  -1.39800003E-02   1.49859815E-17
  -1.39650004E-02   1.70111662E-17
  -1.39499996E-02   1.91083685E-17
  -1.39349997E-02   2.12395199E-17
  -1.39199998E-02   2.33572660E-17
  -1.39049999E-02   2.54042320E-17
  -1.38900001E-02   2.73124715E-17
  -1.38750002E-02   2.90029474E-17
  -1.38600003E-02   3.03853350E-17
  -1.38450004E-02   3.13578512E-17
  -1.38299996E-02   3.18075198E-17
  -1.38149997E-02   3.16105351E-17
  -1.37999998E-02   3.06330756E-17
  -1.37850000E-02   2.87323767E-17
  -1.37700001E-02   2.57582819E-17
  -1.37550002E-02   2.15551141E-17
  -1.37400003E-02   1.59640796E-17
  -1.37250004E-02   8.82607173E-18
  -1.37099996E-02  -1.50967490E-20
  -1.36949997E-02  -1.07086868E-17
  -1.36799999E-02  -2.33929787E-17
  -1.36650000E-02  -3.81902572E-17
  -1.36500001E-02  -5.52014945E-17
  -1.36350002E-02  -7.45009748E-17
  -1.36200003E-02  -9.61296898E-17
  -1.36050005E-02  -1.20089340E-16
  -1.35899996E-02  -1.46335318E-16
  -1.35749998E-02  -1.74769764E-16
  -1.35599999E-02  -2.05235051E-16
  -1.35450000E-02  -2.37506609E-16
  -1.35300001E-02  -2.71285992E-16
  -1.35150002E-02  -3.06195899E-16
  -1.35000004E-02  -3.41773215E-16
  -1.34849995E-02  -3.77465648E-16
  -1.34699997E-02  -4.12627203E-16
  -1.34549998E-02  -4.46516647E-16
  -1.34399999E-02  -4.78296635E-16
  -1.34250000E-02  -5.07034928E-16
  -1.34100001E-02  -5.31708363E-16
  -1.33950002E-02  -5.51207855E-16
  -1.33800004E-02  -5.64348089E-16
  -1.33649996E-02  -5.69877838E-16
  -1.33499997E-02  -5.66495900E-16
  -1.33349998E-02  -5.52867775E-16
  -1.33199999E-02  -5.27647792E-16
  -1.33050000E-02  -4.89502722E-16
  -1.32900001E-02  -4.37141237E-16
  -1.32750003E-02  -3.69343237E-16
  -1.32600004E-02  -2.84996094E-16
  -1.32449996E-02  -1.83130495E-16
  -1.32299997E-02  -6.29591186E-17
  -1.32149998E-02   7.60807640E-17
  -1.31999999E-02   2.34287010E-16
  -1.31850000E-02   4.11649780E-16
  -1.31700002E-02   6.07808502E-16
  -1.31550003E-02   8.22015088E-16
  -1.31400004E-02   1.05309457E-15
  -1.31249996E-02   1.29941112E-15
  -1.31099997E-02   1.55884291E-15
  -1.30949998E-02   1.82875938E-15
  -1.30799999E-02   2.10600555E-15
  -1.30650001E-02   2.38690009E-15
  -1.30500002E-02   2.66724068E-15
  -1.30350003E-02   2.94232014E-15
  -1.30200004E-02   3.20695843E-15
  -1.30049996E-02   3.45553719E-15
  -1.29899997E-02   3.68206832E-15
  -1.29749998E-02   3.88025454E-15
  -1.29600000E-02   4.04358452E-15
  -1.29450001E-02   4.16541538E-15
  -1.29300002E-02   4.23910640E-15
  -1.29150003E-02   4.25811975E-15
  -1.29000004E-02   4.21617426E-15
  -1.28849996E-02   4.10737499E-15
  -1.28699997E-02   3.92638269E-15
  -1.28549999E-02   3.66853993E-15
  -1.28400000E-02   3.33005180E-15
  -1.28250001E-02   2.90812499E-15
  -1.28100002E-02   2.40111585E-15
  -1.27950003E-02   1.80867856E-15
  -1.27800005E-02   1.13186832E-15
  -1.27649996E-02   3.73269129E-16
  -1.27499998E-02  -4.62936328E-16
  -1.27349999E-02  -1.37090472E-15
  -1.27200000E-02  -2.34310701E-15
  -1.27050001E-02  -3.37031720E-15
  -1.26900002E-02  -4.44166247E-15
  -1.26750004E-02  -5.54469419E-15
  -1.26599995E-02  -6.66549454E-15
  -1.26449997E-02  -7.78882794E-15
  -1.26299998E-02  -8.89833946E-15
  -1.26149999E-02  -9.97675893E-15
  -1.26000000E-02  -1.10061742E-14
  -1.25850001E-02  -1.19683308E-14
  -1.25700003E-02  -1.28449082E-14
  -1.25550004E-02  -1.36179054E-14
  -1.25399996E-02  -1.42699607E-14
  -1.25249997E-02  -1.47847111E-14
  -1.25099998E-02  -1.51471514E-14
  -1.24949999E-02  -1.53440086E-14
  -1.24800000E-02  -1.53640105E-14
  -1.24650002E-02  -1.51982563E-14
  -1.24500003E-02  -1.48404306E-14
  -1.24350004E-02  -1.42870318E-14
  -1.24199996E-02  -1.35375516E-14
  -1.24049997E-02  -1.25945812E-14
  -1.23899998E-02  -1.14638286E-14
  -1.23749999E-02  -1.01540971E-14
  -1.23600001E-02  -8.67717831E-15
  -1.23450002E-02  -7.04763853E-15
  -1.23300003E-02  -5.28260653E-15
  -1.23150004E-02  -3.40136477E-15
  -1.22999996E-02  -1.42503182E-15
  -1.22849997E-02   6.23986832E-16
  -1.22699998E-02   2.72247612E-15
  -1.22550000E-02   4.84695122E-15
  -1.22400001E-02   6.97429353E-15
  -1.22250002E-02   9.08229638E-15
  -1.22100003E-02   1.11502900E-14
  -1.21950004E-02   1.31596682E-14
  -1.21799996E-02   1.50944490E-14
  -1.21649997E-02   1.69416788E-14
  -1.21499998E-02   1.86918860E-14
  -1.21350000E-02   2.03392363E-14
  -1.21200001E-02   2.18818155E-14
  -1.21050002E-02   2.33215868E-14
  -1.20900003E-02   2.46643018E-14
  -1.20750004E-02   2.59191912E-14
  -1.20599996E-02   2.70986524E-14
  -1.20449997E-02   2.82175186E-14
  -1.20299999E-02   2.92924593E-14
  -1.20150000E-02   3.03411030E-14
  -1.20000001E-02   3.13809071E-14
  -1.19850002E-02   3.24282261E-14
  -1.19700003E-02   3.34970224E-14
  -1.19550005E-02   3.45976706E-14
  -1.19399996E-02   3.57356051E-14
  -1.19249998E-02   3.69101925E-14
  -1.19099999E-02   3.81133960E-14
  -1.18950000E-02   3.93288951E-14
  -1.18800001E-02   4.05308586E-14
  -1.18650002E-02   4.16834739E-14
  -1.18500004E-02   4.27401644E-14
  -1.18349995E-02   4.36436030E-14
  -1.18199997E-02   4.43255526E-14
  -1.18049998E-02   4.47074323E-14
  -1.17899999E-02   4.47009373E-14
  -1.17750000E-02   4.42094989E-14
  -1.17600001E-02   4.31295150E-14
  -1.17450003E-02   4.13525923E-14
  -1.17300004E-02   3.87678306E-14
  -1.17149996E-02   3.52645396E-14
  -1.16999997E-02   3.07353122E-14
  -1.16849998E-02   2.50795427E-14
  -1.16699999E-02   1.82068343E-14
  -1.16550000E-02   1.00408912E-14
  -1.16400002E-02   5.23351218E-16
  -1.16250003E-02  -1.03824056E-14
  -1.16100004E-02  -2.26874184E-14
  -1.15949996E-02  -3.63736378E-14
  -1.15799997E-02  -5.13907900E-14
  -1.15649998E-02  -6.76532804E-14
  -1.15499999E-02  -8.50383606E-14
  -1.15350001E-02  -1.03384037E-13
  -1.15200002E-02  -1.22488554E-13
  -1.15050003E-02  -1.42109835E-13
  -1.14900004E-02  -1.61966740E-13
  -1.14749996E-02  -1.81740812E-13
  -1.14599997E-02  -2.01078845E-13
  -1.14449998E-02  -2.19596964E-13
  -1.14300000E-02  -2.36885246E-13
  -1.14150001E-02  -2.52513803E-13
  -1.14000002E-02  -2.66039984E-13
  -1.13850003E-02  -2.77015525E-13
  -1.13700004E-02  -2.84995362E-13
  -1.13549996E-02  -2.89547141E-13
  -1.13399997E-02  -2.90260952E-13
  -1.13249999E-02  -2.86759088E-13
  -1.13100000E-02  -2.78706718E-13
  -1.12950001E-02  -2.65821978E-13
  -1.12800002E-02  -2.47886184E-13
  -1.12650003E-02  -2.24752671E-13
  -1.12500004E-02  -1.96356454E-13
  -1.12349996E-02  -1.62720545E-13
  -1.12199998E-02  -1.23964099E-13
  -1.12049999E-02  -8.03059130E-14
  -1.11900000E-02  -3.20686233E-14
  -1.11750001E-02   2.03201561E-14
  -1.11600002E-02   7.63283208E-14
  -1.11450003E-02   1.35321821E-13
  -1.11300005E-02   1.96569730E-13
  -1.11149997E-02   2.59251171E-13
  -1.10999998E-02   3.22464820E-13
  -1.10849999E-02   3.85240396E-13
  -1.10700000E-02   4.46553141E-13
  -1.10550001E-02   5.05337363E-13
  -1.10400002E-02   5.60506394E-13
  -1.10250004E-02   6.10969283E-13
  -1.10099996E-02   6.55652073E-13
  -1.09949997E-02   6.93517726E-13
  -1.09799998E-02   7.23588290E-13
  -1.09649999E-02   7.44965016E-13
  -1.09500000E-02   7.56850908E-13
  -1.09350001E-02   7.58568501E-13
  -1.09200003E-02   7.49581007E-13
  -1.09050004E-02   7.29506950E-13
  -1.08899996E-02   6.98136861E-13
  -1.08749997E-02   6.55445099E-13
  -1.08599998E-02   6.01598361E-13
  -1.08449999E-02   5.36961317E-13
  -1.08300000E-02   4.62101332E-13
  -1.08150002E-02   3.77783796E-13
  -1.08000003E-02   2.84968907E-13
  -1.07850004E-02   1.84801637E-13
  -1.07699996E-02   7.85987283E-14
  -1.07549997E-02  -3.21694236E-14
  -1.07399998E-02  -1.45898701E-13
  -1.07249999E-02  -2.60877203E-13
  -1.07100001E-02  -3.75311056E-13
  -1.06950002E-02  -4.87355436E-13
  -1.06800003E-02  -5.95147683E-13
  -1.06650004E-02  -6.96839938E-13
  -1.06499996E-02  -7.90635135E-13
  -1.06349997E-02  -8.74821157E-13
  -1.06199998E-02  -9.47807696E-13
  -1.06050000E-02  -1.00815688E-12
  -1.05900001E-02  -1.05461842E-12
  -1.05750002E-02  -1.08615666E-12
  -1.05600003E-02  -1.10197745E-12
  -1.05450004E-02  -1.10155071E-12
  -1.05299996E-02  -1.08462718E-12
  -1.05149997E-02  -1.05125251E-12
  -1.04999999E-02  -1.00177310E-12
  -1.04850000E-02  -9.36838606E-13
  -1.04700001E-02  -8.57398625E-13
  -1.04550002E-02  -7.64690286E-13
  -1.04400003E-02  -6.60222961E-13
  -1.04250005E-02  -5.45756962E-13
  -1.04099996E-02  -4.23273694E-13
  -1.03949998E-02  -2.94944407E-13
  -1.03799999E-02  -1.63092128E-13
  -1.03650000E-02  -3.01481049E-14
  -1.03500001E-02   1.01389837E-13
  -1.03350002E-02   2.29009140E-13
  -1.03200004E-02   3.50228960E-13
  -1.03049995E-02   4.62650588E-13
  -1.02899997E-02   5.64009451E-13
  -1.02749998E-02   6.52221278E-13
  -1.02599999E-02   7.25429048E-13
  -1.02450000E-02   7.82046899E-13
  -1.02300001E-02   8.20798453E-13
  -1.02150002E-02   8.40751297E-13
  -1.02000004E-02   8.41343813E-13
  -1.01849996E-02   8.22408873E-13
  -1.01699997E-02   7.84185813E-13
  -1.01549998E-02   7.27329601E-13
  -1.01399999E-02   6.52908391E-13
  -1.01250000E-02   5.62395562E-13
  -1.01100001E-02   4.57652471E-13
  -1.00950003E-02   3.40903114E-13
  -1.00800004E-02   2.14701900E-13
  -1.00649996E-02   8.18942353E-14
  -1.00499997E-02  -5.44309979E-14
  -1.00349998E-02  -1.90992729E-13
  -1.00199999E-02  -3.24374181E-13
  -1.00050000E-02  -4.51086840E-13
  -9.99000017E-03  -5.67633397E-13
  -9.97500028E-03  -6.70574382E-13
  -9.96000040E-03  -7.56597313E-13
  -9.94499959E-03  -8.22583592E-13
  -9.92999971E-03  -8.65673527E-13
  -9.91499983E-03  -8.83332524E-13
  -9.89999995E-03  -8.73411423E-13
  -9.88500006E-03  -8.34197240E-13
  -9.87000018E-03  -7.64469922E-13
  -9.85500030E-03  -6.63543168E-13
  -9.84000042E-03  -5.31297987E-13
  -9.82499961E-03  -3.68218178E-13
  -9.80999973E-03  -1.75400357E-13
  -9.79499985E-03   4.54257061E-14
  -9.77999996E-03   2.91901567E-13
  -9.76500008E-03   5.61043616E-13
  -9.75000020E-03   8.49266892E-13
  -9.73500032E-03   1.15240651E-12
  -9.72000044E-03   1.46575395E-12
  -9.70499963E-03   1.78411029E-12
  -9.68999974E-03   2.10182999E-12
  -9.67499986E-03   2.41289627E-12
  -9.65999998E-03   2.71097988E-12
  -9.64500010E-03   2.98952768E-12
  -9.63000022E-03   3.24184104E-12
  -9.61500034E-03   3.46117080E-12
  -9.60000046E-03   3.64081335E-12
  -9.58499964E-03   3.77420924E-12
  -9.56999976E-03   3.85505083E-12
  -9.55499988E-03   3.87738799E-12
  -9.54000000E-03   3.83573728E-12
  -9.52500012E-03   3.72518899E-12
  -9.51000024E-03   3.54152276E-12
  -9.49500035E-03   3.28130665E-12
  -9.47999954E-03   2.94201100E-12
  -9.46499966E-03   2.52209993E-12
  -9.44999978E-03   2.02113543E-12
  -9.43499990E-03   1.43985767E-12
  -9.42000002E-03   7.80272385E-13
  -9.40500014E-03   4.57073649E-14
  -9.39000025E-03  -7.59114017E-13
  -9.37500037E-03  -1.62803907E-12
  -9.35999956E-03  -2.55346308E-12
  -9.34499968E-03  -3.52630295E-12
  -9.32999980E-03  -4.53602303E-12
  -9.31499992E-03  -5.57065505E-12
  -9.30000003E-03  -6.61685724E-12
  -9.28500015E-03  -7.65998202E-12
  -9.27000027E-03  -8.68419919E-12
  -9.25500039E-03  -9.67259692E-12
  -9.23999958E-03  -1.06073726E-11
  -9.22499970E-03  -1.14699899E-11
  -9.20999981E-03  -1.22414162E-11
  -9.19499993E-03  -1.29023519E-11
  -9.18000005E-03  -1.34335069E-11
  -9.16500017E-03  -1.38158920E-11
  -9.15000029E-03  -1.40311330E-11
  -9.13500041E-03  -1.40618185E-11
  -9.11999959E-03  -1.38918547E-11
  -9.10499971E-03  -1.35068181E-11
  -9.08999983E-03  -1.28943470E-11
  -9.07499995E-03  -1.20445086E-11
  -9.06000007E-03  -1.09501653E-11
  -9.04500019E-03  -9.60734877E-12
  -9.03000031E-03  -8.01558039E-12
  -9.01500043E-03  -6.17820161E-12
  -8.99999961E-03  -4.10263924E-12
  -8.98499973E-03  -1.80063906E-12
  -8.96999985E-03   7.11547466E-13
  -8.95499997E-03   3.41304502E-12
  -8.94000009E-03   6.27830687E-12
  -8.92500021E-03   9.27712508E-12
  -8.91000032E-03   1.23747488E-11
  -8.89500044E-03   1.55320670E-11
  -8.87999963E-03   1.87058962E-11
  -8.86499975E-03   2.18493522E-11
  -8.84999987E-03   2.49123343E-11
  -8.83499999E-03   2.78420811E-11
  -8.82000010E-03   3.05838271E-11
  -8.80500022E-03   3.30815791E-11
  -8.79000034E-03   3.52789430E-11
  -8.77500046E-03   3.71200085E-11
  -8.75999965E-03   3.85503469E-11
  -8.74499977E-03   3.95180208E-11
  -8.72999988E-03   3.99746555E-11
  -8.71500000E-03   3.98765049E-11
  -8.70000012E-03   3.91855645E-11
  -8.68500024E-03   3.78705886E-11
  -8.67000036E-03   3.59081584E-11
  -8.65499955E-03   3.32836189E-11
  -8.63999967E-03   2.99919811E-11
  -8.62499978E-03   2.60386886E-11
  -8.60999990E-03   2.14402714E-11
  -8.59500002E-03   1.62248583E-11
  -8.58000014E-03   1.04324917E-11
  -8.56500026E-03   4.11527973E-12
  -8.55000038E-03  -2.66262923E-12
  -8.53499956E-03  -9.82534366E-12
  -8.51999968E-03  -1.72857128E-11
  -8.50499980E-03  -2.49460556E-11
  -8.48999992E-03  -3.26991108E-11
  -8.47500004E-03  -4.04292294E-11
  -8.46000016E-03  -4.80138047E-11
  -8.44500028E-03  -5.53248523E-11
  -8.43000039E-03  -6.22309149E-11
  -8.41499958E-03  -6.85990223E-11
  -8.39999970E-03  -7.42968187E-11
  -8.38499982E-03  -7.91949492E-11
  -8.36999994E-03  -8.31693256E-11
  -8.35500006E-03  -8.61036034E-11
  -8.34000017E-03  -8.78915760E-11
  -8.32500029E-03  -8.84396861E-11
  -8.31000041E-03  -8.76691983E-11
  -8.29499960E-03  -8.55185298E-11
  -8.27999972E-03  -8.19451729E-11
  -8.26499984E-03  -7.69276171E-11
  -8.24999996E-03  -7.04667852E-11
  -8.23500007E-03  -6.25873797E-11
  -8.22000019E-03  -5.33387258E-11
  -8.20500031E-03  -4.27952500E-11
  -8.19000043E-03  -3.10566781E-11
  -8.17499962E-03  -1.82476534E-11
  -8.15999974E-03  -4.51694194E-12
  -8.14499985E-03   9.96378674E-12
  -8.12999997E-03   2.50016587E-11
  -8.11500009E-03   4.03848135E-11
  -8.10000021E-03   5.58849078E-11
  -8.08500033E-03   7.12602963E-11
  -8.07000045E-03   8.62592706E-11
  -8.05499963E-03   1.00623954E-10
  -8.03999975E-03   1.14094248E-10
  -8.02499987E-03   1.26412256E-10
  -8.00999999E-03   1.37326567E-10
  -7.99500011E-03   1.46596901E-10
  -7.98000023E-03   1.53998689E-10
  -7.96500035E-03   1.59327565E-10
  -7.95000046E-03   1.62403813E-10
  -7.93499965E-03   1.63076441E-10
  -7.91999977E-03   1.61227046E-10
  -7.90499989E-03   1.56773303E-10
  -7.89000001E-03   1.49671997E-10
  -7.87500013E-03   1.39921269E-10
  -7.86000025E-03   1.27562849E-10
  -7.84500036E-03   1.12682717E-10
  -7.82999955E-03   9.54120741E-11
  -7.81499967E-03   7.59266192E-11
  -7.79999979E-03   5.44457500E-11
  -7.78499991E-03   3.12306500E-11
  -7.77000003E-03   6.58148969E-12
  -7.75500014E-03  -1.91658599E-11
  -7.73999980E-03  -4.56440649E-11
  -7.72499992E-03  -7.24592469E-11
  -7.71000003E-03  -9.91964844E-11
  -7.69500015E-03  -1.25425864E-10
  -7.67999981E-03  -1.50709251E-10
  -7.66499992E-03  -1.74607107E-10
  -7.65000004E-03  -1.96685834E-10
  -7.63500016E-03  -2.16525201E-10
  -7.61999981E-03  -2.33725872E-10
  -7.60499993E-03  -2.47916743E-10
  -7.59000005E-03  -2.58762151E-10
  -7.57500017E-03  -2.65968719E-10
  -7.55999982E-03  -2.69291700E-10
  -7.54499994E-03  -2.68540856E-10
  -7.53000006E-03  -2.63585487E-10
  -7.51500018E-03  -2.54358229E-10
  -7.49999983E-03  -2.40858944E-10
  -7.48499995E-03  -2.23156368E-10
  -7.47000007E-03  -2.01389780E-10
  -7.45500019E-03  -1.75768580E-10
  -7.43999984E-03  -1.46571325E-10
  -7.42499996E-03  -1.14143424E-10
  -7.41000008E-03  -7.88932322E-11
  -7.39500020E-03  -4.12876330E-11
  -7.37999985E-03  -1.84592359E-12
  -7.36499997E-03   3.88669236E-11
  -7.35000009E-03   8.02483219E-11
  -7.33500021E-03   1.21666732E-10
  -7.31999986E-03   1.62471328E-10
  -7.30499998E-03   2.02001804E-10
  -7.29000010E-03   2.39599257E-10
  -7.27500021E-03   2.74616829E-10
  -7.25999987E-03   3.06430492E-10
  -7.24499999E-03   3.34450106E-10
  -7.23000010E-03   3.58130053E-10
  -7.21500022E-03   3.76978754E-10
  -7.19999988E-03   3.90569160E-10
  -7.18499999E-03   3.98546085E-10
  -7.17000011E-03   4.00635192E-10
  -7.15500023E-03   3.96648658E-10
  -7.13999989E-03   3.86490645E-10
  -7.12500000E-03   3.70161429E-10
  -7.11000012E-03   3.47759488E-10
  -7.09499978E-03   3.19482413E-10
  -7.07999989E-03   2.85626078E-10
  -7.06500001E-03   2.46582504E-10
  -7.05000013E-03   2.02835332E-10
  -7.03499978E-03   1.54954521E-10
  -7.01999990E-03   1.03589116E-10
  -7.00500002E-03   4.94583575E-11
  -6.99000014E-03  -6.65796888E-12
  -6.97499979E-03  -6.39310965E-11
  -6.95999991E-03  -1.21495133E-10
  -6.94500003E-03  -1.78460441E-10
  -6.93000015E-03  -2.33927377E-10
  -6.91499980E-03  -2.87000340E-10
  -6.89999992E-03  -3.36802475E-10
  -6.88500004E-03  -3.82489707E-10
  -6.87000016E-03  -4.23265284E-10
  -6.85499981E-03  -4.58393323E-10
  -6.83999993E-03  -4.87212104E-10
  -6.82500005E-03  -5.09145559E-10
  -6.81000017E-03  -5.23714239E-10
  -6.79499982E-03  -5.30545441E-10
  -6.77999994E-03  -5.29380484E-10
  -6.76500006E-03  -5.20081644E-10
  -6.75000018E-03  -5.02636099E-10
  -6.73499983E-03  -4.77158701E-10
  -6.71999995E-03  -4.43892562E-10
  -6.70500007E-03  -4.03207745E-10
  -6.69000018E-03  -3.55597329E-10
  -6.67499984E-03  -3.01672215E-10
  -6.65999996E-03  -2.42153214E-10
  -6.64500007E-03  -1.77862253E-10
  -6.63000019E-03  -1.09710546E-10
  -6.61499985E-03  -3.86861376E-11
  -6.59999996E-03   3.41602302E-11
  -6.58500008E-03   1.07730783E-10
  -6.57000020E-03   1.80896978E-10
  -6.55499985E-03   2.52516619E-10
  -6.53999997E-03   3.21451865E-10
  -6.52500009E-03   3.86586652E-10
  -6.51000021E-03   4.46844894E-10
  -6.49499986E-03   5.01207575E-10
  -6.47999998E-03   5.48730172E-10
  -6.46500010E-03   5.88557925E-10
  -6.45000022E-03   6.19941376E-10
  -6.43499987E-03   6.42249032E-10
  -6.41999999E-03   6.54979182E-10
  -6.40500011E-03   6.57770782E-10
  -6.39000023E-03   6.50409726E-10
  -6.37499988E-03   6.32836117E-10
  -6.36000000E-03   6.05146377E-10
  -6.34500012E-03   5.67595027E-10
  -6.32999977E-03   5.20593013E-10
  -6.31499989E-03   4.64704164E-10
  -6.30000001E-03   4.00638217E-10
  -6.28500013E-03   3.29243161E-10
  -6.26999978E-03   2.51493409E-10
  -6.25499990E-03   1.68477676E-10
  -6.24000002E-03   8.13834555E-11
  -6.22500014E-03  -8.51927556E-12
  -6.20999979E-03  -9.98963134E-11
  -6.19499991E-03  -1.91368699E-10
  -6.18000003E-03  -2.81533158E-10
  -6.16500014E-03  -3.68983122E-10
  -6.14999980E-03  -4.52329951E-10
  -6.13499992E-03  -5.30224975E-10
  -6.12000003E-03  -6.01379557E-10
  -6.10500015E-03  -6.64587385E-10
  -6.08999981E-03  -7.18742565E-10
  -6.07499992E-03  -7.62858832E-10
  -6.06000004E-03  -7.96086252E-10
  -6.04500016E-03  -8.17726775E-10
  -6.02999981E-03  -8.27246549E-10
  -6.01499993E-03  -8.24286805E-10
  -6.00000005E-03  -8.08672684E-10
  -5.98500017E-03  -7.80418119E-10
  -5.96999982E-03  -7.39729278E-10
  -5.95499994E-03  -6.87004065E-10
  -5.94000006E-03  -6.22829510E-10
  -5.92500018E-03  -5.47976164E-10
  -5.90999983E-03  -4.63388800E-10
  -5.89499995E-03  -3.70175723E-10
  -5.88000007E-03  -2.69593903E-10
  -5.86500019E-03  -1.63033351E-10
  -5.84999984E-03  -5.19974341E-11
  -5.83499996E-03   6.19172630E-11
  -5.82000008E-03   1.77043727E-10
  -5.80500020E-03   2.91668800E-10
  -5.78999985E-03   4.04057898E-10
  -5.77499997E-03   5.12480891E-10
  -5.76000009E-03   6.15238416E-10
  -5.74500021E-03   7.10687842E-10
  -5.72999986E-03   7.97269417E-10
  -5.71499998E-03   8.73530526E-10
  -5.70000010E-03   9.38150224E-10
  -5.68500021E-03   9.89960447E-10
  -5.66999987E-03   1.02796738E-09
  -5.65499999E-03   1.05136866E-09
  -5.64000010E-03   1.05956832E-09
  -5.62500022E-03   1.05219000E-09
  -5.60999988E-03   1.02908704E-09
  -5.59500000E-03   9.90346360E-10
  -5.58000011E-03   9.36293043E-10
  -5.56500023E-03   8.67489025E-10
  -5.54999989E-03   7.84728282E-10
  -5.53500000E-03   6.89028168E-10
  -5.52000012E-03   5.81618975E-10
  -5.50499978E-03   4.63928035E-10
  -5.48999989E-03   3.37561118E-10
  -5.47500001E-03   2.04281828E-10
  -5.46000013E-03   6.59865426E-11
  -5.44499978E-03  -7.53215823E-11
  -5.42999990E-03  -2.17562052E-10
  -5.41500002E-03  -3.58606866E-10
  -5.40000014E-03  -4.96312491E-10
  -5.38499979E-03  -6.28553043E-10
  -5.36999991E-03  -7.53252072E-10
  -5.35500003E-03  -8.68415784E-10
  -5.34000015E-03  -9.72165570E-10
  -5.32499980E-03  -1.06276754E-09
  -5.30999992E-03  -1.13866216E-09
  -5.29500004E-03  -1.19849253E-09
  -5.28000016E-03  -1.24112598E-09
  -5.26499981E-03  -1.26567767E-09
  -5.24999993E-03  -1.27152677E-09
  -5.23500005E-03  -1.25833155E-09
  -5.22000017E-03  -1.22603783E-09
  -5.20499982E-03  -1.17488663E-09
  -5.18999994E-03  -1.10541254E-09
  -5.17500006E-03  -1.01844277E-09
  -5.16000018E-03  -9.15086895E-10
  -5.14499983E-03  -7.96725852E-10
  -5.12999995E-03  -6.64993061E-10
  -5.11500007E-03  -5.21754417E-10
  -5.10000018E-03  -3.69082293E-10
  -5.08499984E-03  -2.09225748E-10
  -5.06999996E-03  -4.45792639E-11
  -5.05500007E-03   1.22353461E-10
  -5.04000019E-03   2.88997021E-10
  -5.02499985E-03   4.52742982E-10
  -5.00999996E-03   6.10991258E-10
  -4.99500008E-03   7.61190944E-10
  -4.98000020E-03   9.00880925E-10
  -4.96499985E-03   1.02773035E-09
  -4.94999997E-03   1.13957865E-09
  -4.93500009E-03   1.23446986E-09
  -4.92000021E-03   1.31068956E-09
  -4.90499986E-03   1.36679290E-09
  -4.88999998E-03   1.40163459E-09
  -4.87500010E-03   1.41438916E-09
  -4.86000022E-03   1.40457035E-09
  -4.84499987E-03   1.37204303E-09
  -4.82999999E-03   1.31703193E-09
  -4.81500011E-03   1.24012267E-09
  -4.80000023E-03   1.14225673E-09
  -4.78499988E-03   1.02472453E-09
  -4.77000000E-03   8.89147422E-10
  -4.75500012E-03   7.37458206E-10
  -4.73999977E-03   5.71874159E-10
  -4.72499989E-03   3.94866834E-10
  -4.71000001E-03   2.09124898E-10
  -4.69500013E-03   1.75161829E-11
  -4.67999978E-03  -1.76957157E-10
  -4.66499990E-03  -3.71203623E-10
  -4.65000002E-03  -5.62090818E-10
  -4.63500014E-03  -7.46494699E-10
  -4.61999979E-03  -9.21349386E-10
  -4.60499991E-03  -1.08369747E-09
  -4.59000003E-03  -1.23073818E-09
  -4.57500014E-03  -1.35987488E-09
  -4.55999980E-03  -1.46875845E-09
  -4.54499992E-03  -1.55532953E-09
  -4.53000003E-03  -1.61785418E-09
  -4.51500015E-03  -1.65495673E-09
  -4.49999981E-03  -1.66564573E-09
  -4.48499992E-03  -1.64933700E-09
  -4.47000004E-03  -1.60586644E-09
  -4.45500016E-03  -1.53549984E-09
  -4.43999982E-03  -1.43893308E-09
  -4.42499993E-03  -1.31728806E-09
  -4.41000005E-03  -1.17210086E-09
  -4.39500017E-03  -1.00530206E-09
  -4.37999982E-03  -8.19191992E-10
  -4.36499994E-03  -6.16408535E-10
  -4.35000006E-03  -3.99891148E-10
  -4.33500018E-03  -1.72838244E-10
  -4.31999983E-03   6.13413972E-11
  -4.30499995E-03   2.99077124E-10
  -4.29000007E-03   5.36692579E-10
  -4.27500019E-03   7.70460362E-10
  -4.25999984E-03   9.96661087E-10
  -4.24499996E-03   1.21164057E-09
  -4.23000008E-03   1.41186896E-09
  -4.21500020E-03   1.59399560E-09
  -4.19999985E-03   1.75490533E-09
  -4.18499997E-03   1.89176852E-09
  -4.17000009E-03   2.00208872E-09
  -4.15500021E-03   2.08374518E-09
  -4.13999986E-03   2.13503082E-09
  -4.12499998E-03   2.15468243E-09
  -4.11000010E-03   2.14190665E-09
  -4.09500021E-03   2.09639572E-09
  -4.07999987E-03   2.01833950E-09
  -4.06499999E-03   1.90842697E-09
  -4.05000011E-03   1.76784198E-09
  -4.03500022E-03   1.59825064E-09
  -4.01999988E-03   1.40178036E-09
  -4.00500000E-03   1.18099286E-09
  -3.99000011E-03   9.38850442E-10
  -3.97500023E-03   6.78674839E-10
  -3.95999989E-03   4.04100808E-10
  -3.94500000E-03   1.19023513E-10
  -3.93000012E-03  -1.72455689E-10
  -3.91499978E-03  -4.66090999E-10
  -3.89999989E-03  -7.57552410E-10
  -3.88500001E-03  -1.04249198E-09
  -3.86999990E-03  -1.31660727E-09
  -3.85500002E-03  -1.57570668E-09
  -3.83999990E-03  -1.81577309E-09
  -3.82500002E-03  -2.03302375E-09
  -3.80999991E-03  -2.22397278E-09
  -3.79500003E-03  -2.38548092E-09
  -3.77999991E-03  -2.51480792E-09
  -3.76500003E-03  -2.60965627E-09
  -3.74999992E-03  -2.66820877E-09
  -3.73500003E-03  -2.68915978E-09
  -3.71999992E-03  -2.67173950E-09
  -3.70500004E-03  -2.61572897E-09
  -3.68999992E-03  -2.52146948E-09
  -3.67500004E-03  -2.38986075E-09
  -3.65999993E-03  -2.22235474E-09
  -3.64500005E-03  -2.02093675E-09
  -3.62999993E-03  -1.78810333E-09
  -3.61500005E-03  -1.52682922E-09
  -3.59999994E-03  -1.24052890E-09
  -3.58500006E-03  -9.33010003E-10
  -3.56999994E-03  -6.08421702E-10
  -3.55500006E-03  -2.71198869E-10
  -3.53999995E-03   7.40007222E-11
  -3.52500007E-03   4.22360980E-10
  -3.50999995E-03   7.68975716E-10
  -3.49500007E-03   1.10891829E-09
  -3.47999996E-03   1.43731027E-09
  -3.46500007E-03   1.74939485E-09
  -3.44999996E-03   2.04060235E-09
  -3.43500008E-03   2.30661823E-09
  -3.41999996E-03   2.54344790E-09
  -3.40500008E-03   2.74747181E-09
  -3.38999997E-03   2.91550584E-09
  -3.37500009E-03   3.04484238E-09
  -3.35999997E-03   3.13329918E-09
  -3.34500009E-03   3.17924842E-09
  -3.32999998E-03   3.18164894E-09
  -3.31500010E-03   3.14006066E-09
  -3.29999998E-03   3.05465697E-09
  -3.28500010E-03   2.92622748E-09
  -3.26999999E-03   2.75616996E-09
  -3.25500011E-03   2.54647436E-09
  -3.23999999E-03   2.29970065E-09
  -3.22500011E-03   2.01894657E-09
  -3.21000000E-03   1.70780279E-09
  -3.19500011E-03   1.37031297E-09
  -3.18000000E-03   1.01091513E-09
  -3.16499989E-03   6.34381936E-10
  -3.15000000E-03   2.45757192E-10
  -3.13499989E-03  -1.49714241E-10
  -3.12000001E-03  -5.46659495E-10
  -3.10499989E-03  -9.39651801E-10
  -3.09000001E-03  -1.32328659E-09
  -3.07499990E-03  -1.69225944E-09
  -3.06000002E-03  -2.04143724E-09
  -3.04499990E-03  -2.36593722E-09
  -3.03000002E-03  -2.66119260E-09
  -3.01499991E-03  -2.92301849E-09
  -3.00000003E-03  -3.14767834E-09
  -2.98499991E-03  -3.33193251E-09
  -2.97000003E-03  -3.47308959E-09
  -2.95499992E-03  -3.56904661E-09
  -2.94000003E-03  -3.61832120E-09
  -2.92499992E-03  -3.62007491E-09
  -2.91000004E-03  -3.57412722E-09
  -2.89499993E-03  -3.48096485E-09
  -2.88000004E-03  -3.34173000E-09
  -2.86499993E-03  -3.15821036E-09
  -2.85000005E-03  -2.93281732E-09
  -2.83499993E-03  -2.66855005E-09
  -2.82000005E-03  -2.36895770E-09
  -2.80499994E-03  -2.03808481E-09
  -2.79000006E-03  -1.68041914E-09
  -2.77499994E-03  -1.30082733E-09
  -2.76000006E-03  -9.04483932E-10
  -2.74499995E-03  -4.96796992E-10
  -2.73000007E-03  -8.33344227E-11
  -2.71499995E-03   3.30261762E-10
  -2.70000007E-03   7.38353934E-10
  -2.68499996E-03   1.13539034E-09
  -2.67000007E-03   1.51598778E-09
  -2.65499996E-03   1.87500770E-09
  -2.64000008E-03   2.20763230E-09
  -2.62499996E-03   2.50943533E-09
  -2.61000008E-03   2.77644374E-09
  -2.59499997E-03   3.00519876E-09
  -2.58000009E-03   3.19280313E-09
  -2.56499997E-03   3.33696248E-09
  -2.55000009E-03   3.43602080E-09
  -2.53499998E-03   3.48897888E-09
  -2.52000010E-03   3.49550788E-09
  -2.50499998E-03   3.45595619E-09
  -2.49000010E-03   3.37133343E-09
  -2.47499999E-03   3.24329852E-09
  -2.46000011E-03   3.07413006E-09
  -2.44499999E-03   2.86668866E-09
  -2.43000011E-03   2.62437028E-09
  -2.41500000E-03   2.35105135E-09
  -2.40000011E-03   2.05102824E-09
  -2.38500000E-03   1.72894654E-09
  -2.36999989E-03   1.38973077E-09
  -2.35500000E-03   1.03850684E-09
  -2.33999989E-03   6.80518031E-10
  -2.32500001E-03   3.21048105E-10
  -2.30999989E-03  -3.46624500E-11
  -2.29500001E-03  -3.81498139E-10
  -2.27999990E-03  -7.14543591E-10
  -2.26500002E-03  -1.02916198E-09
  -2.24999990E-03  -1.32105971E-09
  -2.23500002E-03  -1.58635372E-09
  -2.21999991E-03  -1.82162696E-09
  -2.20500003E-03  -2.02397521E-09
  -2.18999991E-03  -2.19104934E-09
  -2.17500003E-03  -2.32108266E-09
  -2.15999992E-03  -2.41291565E-09