  -1.49999997E-02   0.00000000    
  -1.49849998E-02   0.00000000    
  -1.49699999E-02   0.00000000    
  -1.49550000E-02   0.00000000    
  -1.49400001E-02   0.00000000    
  -1.49250003E-02   0.00000000    
  -1.49100004E-02   0.00000000    
  -1.48949996E-02   0.00000000    
  -1.48799997E-02   0.00000000    
  -1.48649998E-02   0.00000000    
  -1.48499999E-02   0.00000000    
  -1.48350000E-02   0.00000000    
  -1.48200002E-02   0.00000000    
  -1.48050003E-02   0.00000000    
  -1.47900004E-02   0.00000000    
  -1.47749996E-02   0.00000000    
  -1.47599997E-02   0.00000000    
  -1.47449998E-02   0.00000000    
  -1.47299999E-02   0.00000000    
  -1.47150001E-02   0.00000000    
  -1.47000002E-02   0.00000000    
  -1.46850003E-02   0.00000000    
  -1.46700004E-02   0.00000000    
  -1.46549996E-02   0.00000000    
  -1.46399997E-02   0.00000000    
  -1.46249998E-02   0.00000000    
  -1.46100000E-02   0.00000000    
  -1.45950001E-02   0.00000000    
  -1.45800002E-02   0.00000000    
  -1.45650003E-02   0.00000000    
  -1.45500004E-02   0.00000000    
  -1.45349996E-02   0.00000000    
  -1.45199997E-02   0.00000000    
  -1.45049999E-02   0.00000000    
  -1.44900000E-02   0.00000000    
  -1.44750001E-02   0.00000000    
  -1.44600002E-02   0.00000000    
  -1.44450003E-02   0.00000000    
  -1.44300004E-02   0.00000000    
  -1.44149996E-02   0.00000000    
  -1.43999998E-02   0.00000000    
  -1.43849999E-02   0.00000000    
  -1.43700000E-02   0.00000000    
  -1.43550001E-02   0.00000000    
  -1.43400002E-02   0.00000000    
  -1.43250003E-02   0.00000000    
  -1.43100005E-02   0.00000000    
  -1.42949997E-02   0.00000000    
  -1.42799998E-02   0.00000000    
  -1.42649999E-02   0.00000000    
  -1.42500000E-02   0.00000000    
  -1.42350001E-02   0.00000000    
  -1.42200002E-02   0.00000000    
  -1.42050004E-02   0.00000000    
  -1.41899996E-02   0.00000000    
  -1.41749997E-02   0.00000000    
  -1.41599998E-02   0.00000000    
  -1.41449999E-02   0.00000000    
  -1.41300000E-02   0.00000000    
  -1.41150001E-02   0.00000000    
  -1.41000003E-02   0.00000000    
  -1.40850004E-02   0.00000000    
  -1.40699996E-02   0.00000000    
  -1.40549997E-02   0.00000000    
  -1.40399998E-02   0.00000000    
  -1.40249999E-02   0.00000000    
  -1.40100000E-02   0.00000000    
  -1.39950002E-02   0.00000000    
  -1.39800003E-02   0.00000000    
  -1.39650004E-02   0.00000000    
  -1.39499996E-02   0.00000000    
  -1.39349997E-02   0.00000000    
  -1.39199998E-02   0.00000000    
  -1.39049999E-02   0.00000000    
  -1.38900001E-02   0.00000000    
  -1.38750002E-02   0.00000000    
  -1.38600003E-02   0.00000000    
  -1.38450004E-02   0.00000000    
  -1.38299996E-02   0.00000000    
  -1.38149997E-02   0.00000000    
  -1.37999998E-02   0.00000000    
  -1.37850000E-02   0.00000000    
  -1.37700001E-02   0.00000000    
  -1.37550002E-02   0.00000000    
  -1.37400003E-02   0.00000000    
  -1.37250004E-02   0.00000000    
  -1.37099996E-02   0.00000000    
  -1.36949997E-02   0.00000000    
  -1.36799999E-02   0.00000000    
  -1.36650000E-02   0.00000000    
  -1.36500001E-02   0.00000000    
  -1.36350002E-02   0.00000000    
  -1.36200003E-02   0.00000000    
  -1.36050005E-02   0.00000000    
  -1.35899996E-02   0.00000000    
  -1.35749998E-02   0.00000000    
  -1.35599999E-02   0.00000000    
  -1.35450000E-02   0.00000000    
  -1.35300001E-02   0.00000000    
  -1.35150002E-02   0.00000000    
  -1.35000004E-02   0.00000000    
  -1.34849995E-02   0.00000000    
  -1.34699997E-02   0.00000000    
  -1.34549998E-02   0.00000000    
  -1.34399999E-02   0.00000000    
  -1.34250000E-02   0.00000000    
  -1.34100001E-02   0.00000000    
  -1.33950002E-02   0.00000000    
  -1.33800004E-02   0.00000000    
  -1.33649996E-02   0.00000000    
  -1.33499997E-02   0.00000000    
  -1.33349998E-02   0.00000000    
  -1.33199999E-02   0.00000000    
  -1.33050000E-02   0.00000000    
  -1.32900001E-02   0.00000000    
  -1.32750003E-02   0.00000000    
  -1.32600004E-02   0.00000000    
  -1.32449996E-02   0.00000000    
  -1.32299997E-02   0.00000000    
  -1.32149998E-02   0.00000000    
  -1.31999999E-02   0.00000000    
  -1.31850000E-02   0.00000000    
  -1.31700002E-02   0.00000000    
  -1.31550003E-02   0.00000000    
  -1.31400004E-02   0.00000000    
  -1.31249996E-02   0.00000000    
  -1.31099997E-02   0.00000000    
  -1.30949998E-02   0.00000000    
  -1.30799999E-02   0.00000000    
  -1.30650001E-02   0.00000000    
  -1.30500002E-02   0.00000000    
  -1.30350003E-02   0.00000000    
  -1.30200004E-02   0.00000000    
  -1.30049996E-02   0.00000000    
  -1.29899997E-02   0.00000000    
  -1.29749998E-02   0.00000000    
  -1.29600000E-02   0.00000000    
  -1.29450001E-02   0.00000000    
  -1.29300002E-02   0.00000000    
  -1.29150003E-02   0.00000000    
  -1.29000004E-02   0.00000000    
  -1.28849996E-02   0.00000000    
  -1.28699997E-02   0.00000000    
  -1.28549999E-02   0.00000000    
  -1.28400000E-02   0.00000000    
  -1.28250001E-02   0.00000000    
  -1.28100002E-02   0.00000000    
  -1.27950003E-02   0.00000000    
  -1.27800005E-02   0.00000000    
  -1.27649996E-02   0.00000000    
  -1.27499998E-02   0.00000000    
  -1.27349999E-02   0.00000000    
  -1.27200000E-02   0.00000000    
  -1.27050001E-02   0.00000000    
  -1.26900002E-02   0.00000000    
  -1.26750004E-02   0.00000000    
  -1.26599995E-02   0.00000000    
  -1.26449997E-02   0.00000000    
  -1.26299998E-02   0.00000000    
  -1.26149999E-02   0.00000000    
  -1.26000000E-02   0.00000000    
  -1.25850001E-02   0.00000000    
  -1.25700003E-02   0.00000000    
  -1.25550004E-02   0.00000000    
  -1.25399996E-02   0.00000000    
  -1.25249997E-02   0.00000000    
  -1.25099998E-02   0.00000000    
  -1.24949999E-02   0.00000000    
  -1.24800000E-02   0.00000000    
  -1.24650002E-02   0.00000000    
  -1.24500003E-02   0.00000000    
  -1.24350004E-02   0.00000000    
  -1.24199996E-02   0.00000000    
  -1.24049997E-02   0.00000000    
  -1.23899998E-02   0.00000000    
  -1.23749999E-02   0.00000000    
  -1.23600001E-02   0.00000000    
  -1.23450002E-02   0.00000000    
  -1.23300003E-02   0.00000000    
  -1.23150004E-02   0.00000000    
  -1.22999996E-02   0.00000000    
  -1.22849997E-02   0.00000000    
  -1.22699998E-02   0.00000000    
  -1.22550000E-02   0.00000000    
  -1.22400001E-02   0.00000000    
  -1.22250002E-02   0.00000000    
  -1.22100003E-02   0.00000000    
  -1.21950004E-02   0.00000000    
  -1.21799996E-02   0.00000000    
  -1.21649997E-02   0.00000000    
  -1.21499998E-02   0.00000000    
  -1.21350000E-02   0.00000000    
  -1.21200001E-02   0.00000000    
  -1.21050002E-02   0.00000000    
  -1.20900003E-02   0.00000000    
  -1.20750004E-02   0.00000000    
  -1.20599996E-02   0.00000000    
  -1.20449997E-02   0.00000000    
  -1.20299999E-02   0.00000000    
  -1.20150000E-02   0.00000000    
  -1.20000001E-02   0.00000000    
  -1.19850002E-02   0.00000000    
  -1.19700003E-02   0.00000000    
  -1.19550005E-02   0.00000000    
  -1.19399996E-02   0.00000000    
  -1.19249998E-02   0.00000000    
  -1.19099999E-02   0.00000000    
  -1.18950000E-02   0.00000000    
  -1.18800001E-02   0.00000000    
  -1.18650002E-02   0.00000000    
  -1.18500004E-02   0.00000000    
  -1.18349995E-02   0.00000000    
  -1.18199997E-02   0.00000000    
  -1.18049998E-02   0.00000000    
  -1.17899999E-02   0.00000000    
  -1.17750000E-02   0.00000000    
  -1.17600001E-02   0.00000000    
  -1.17450003E-02   0.00000000    
  -1.17300004E-02   0.00000000    
  -1.17149996E-02   0.00000000    
  -1.16999997E-02   0.00000000    
  -1.16849998E-02   0.00000000    
  -1.16699999E-02   0.00000000    
  -1.16550000E-02   0.00000000    
  -1.16400002E-02   0.00000000    
  -1.16250003E-02   0.00000000    
  -1.16100004E-02   0.00000000    
  -1.15949996E-02   0.00000000    
  -1.15799997E-02   0.00000000    
  -1.15649998E-02   0.00000000    
  -1.15499999E-02   0.00000000    
  -1.15350001E-02   0.00000000    
  -1.15200002E-02   0.00000000    
  -1.15050003E-02   0.00000000    
  -1.14900004E-02   0.00000000    
  -1.14749996E-02   0.00000000    
  -1.14599997E-02   0.00000000    
  -1.14449998E-02   0.00000000    
  -1.14300000E-02   0.00000000    
  -1.14150001E-02   0.00000000    
  -1.14000002E-02   0.00000000    
  -1.13850003E-02   0.00000000    
  -1.13700004E-02   0.00000000    
  -1.13549996E-02   0.00000000    
  -1.13399997E-02   0.00000000    
  -1.13249999E-02   0.00000000    
  -1.13100000E-02   0.00000000    
  -1.12950001E-02   0.00000000    
  -1.12800002E-02   0.00000000    
  -1.12650003E-02   0.00000000    
  -1.12500004E-02   0.00000000    
  -1.12349996E-02   0.00000000    
  -1.12199998E-02   0.00000000    
  -1.12049999E-02   0.00000000    
  -1.11900000E-02   0.00000000    
  -1.11750001E-02   0.00000000    
  -1.11600002E-02   0.00000000    
  -1.11450003E-02   0.00000000    
  -1.11300005E-02   0.00000000    
  -1.11149997E-02   0.00000000    
  -1.10999998E-02   0.00000000    
  -1.10849999E-02   0.00000000    
  -1.10700000E-02   0.00000000    
  -1.10550001E-02   0.00000000    
  -1.10400002E-02   0.00000000    
  -1.10250004E-02   0.00000000    
  -1.10099996E-02   0.00000000    
  -1.09949997E-02   0.00000000    
  -1.09799998E-02   0.00000000    
  -1.09649999E-02   0.00000000    
  -1.09500000E-02   0.00000000    
  -1.09350001E-02   0.00000000    
  -1.09200003E-02   0.00000000    
  -1.09050004E-02   0.00000000    
  -1.08899996E-02   0.00000000    
  -1.08749997E-02   0.00000000    
  -1.08599998E-02   0.00000000    
  -1.08449999E-02   0.00000000    
  -1.08300000E-02   0.00000000    
  -1.08150002E-02   0.00000000    
  -1.08000003E-02   0.00000000    
  -1.07850004E-02   0.00000000    
  -1.07699996E-02   0.00000000    
  -1.07549997E-02   0.00000000    
  -1.07399998E-02   0.00000000    
  -1.07249999E-02   0.00000000    
  -1.07100001E-02   0.00000000    
  -1.06950002E-02   0.00000000    
  -1.06800003E-02   0.00000000    
  -1.06650004E-02   0.00000000    
  -1.06499996E-02   0.00000000    
  -1.06349997E-02   0.00000000    
  -1.06199998E-02   0.00000000    
  -1.06050000E-02   0.00000000    
  -1.05900001E-02   0.00000000    
  -1.05750002E-02   0.00000000    
  -1.05600003E-02   0.00000000    
  -1.05450004E-02   0.00000000    
  -1.05299996E-02   0.00000000    
  -1.05149997E-02   0.00000000    
  -1.04999999E-02   0.00000000    
  -1.04850000E-02   0.00000000    
  -1.04700001E-02   0.00000000    
  -1.04550002E-02   0.00000000    
  -1.04400003E-02   0.00000000    
  -1.04250005E-02   0.00000000    
  -1.04099996E-02   0.00000000    
  -1.03949998E-02   0.00000000    
  -1.03799999E-02   0.00000000    
  -1.03650000E-02   0.00000000    
  -1.03500001E-02   0.00000000    
  -1.03350002E-02   0.00000000    
  -1.03200004E-02   0.00000000    
  -1.03049995E-02   0.00000000    
  -1.02899997E-02   0.00000000    
  -1.02749998E-02   0.00000000    
  -1.02599999E-02   0.00000000    
  -1.02450000E-02   0.00000000    
  -1.02300001E-02   0.00000000    
  -1.02150002E-02   0.00000000    
  -1.02000004E-02   0.00000000    
  -1.01849996E-02   0.00000000    
  -1.01699997E-02   0.00000000    
  -1.01549998E-02   0.00000000    
  -1.01399999E-02   0.00000000    
  -1.01250000E-02   0.00000000    
  -1.01100001E-02   0.00000000    
  -1.00950003E-02   0.00000000    
  -1.00800004E-02   0.00000000    
  -1.00649996E-02   0.00000000    
  -1.00499997E-02   0.00000000    
  -1.00349998E-02   0.00000000    
  -1.00199999E-02   0.00000000    
  -1.00050000E-02   0.00000000    
  -9.99000017E-03   0.00000000    
  -9.97500028E-03   0.00000000    
  -9.96000040E-03   0.00000000    
  -9.94499959E-03   0.00000000    
  -9.92999971E-03   0.00000000    
  -9.91499983E-03   0.00000000    
  -9.89999995E-03   0.00000000    
  -9.88500006E-03   0.00000000    
  -9.87000018E-03   0.00000000    
  -9.85500030E-03   0.00000000    
  -9.84000042E-03   0.00000000    
  -9.82499961E-03   0.00000000    
  -9.80999973E-03   0.00000000    
  -9.79499985E-03   0.00000000    
  -9.77999996E-03   0.00000000    
  -9.76500008E-03   0.00000000    
  -9.75000020E-03   0.00000000    
  -9.73500032E-03   0.00000000    
  -9.72000044E-03   0.00000000    
  -9.70499963E-03   0.00000000    
  -9.68999974E-03   0.00000000    
  -9.67499986E-03   0.00000000    
  -9.65999998E-03   0.00000000    
  -9.64500010E-03   0.00000000    
  -9.63000022E-03   0.00000000    
  -9.61500034E-03   0.00000000    
  -9.60000046E-03   0.00000000    
  -9.58499964E-03   0.00000000    
  -9.56999976E-03   0.00000000    
  -9.55499988E-03   0.00000000    
  -9.54000000E-03   0.00000000    
  -9.52500012E-03   0.00000000    
  -9.51000024E-03   0.00000000    
  -9.49500035E-03   0.00000000    
  -9.47999954E-03   0.00000000    
  -9.46499966E-03   0.00000000    
  -9.44999978E-03   0.00000000    
  -9.43499990E-03   0.00000000    
  -9.42000002E-03   0.00000000    
  -9.40500014E-03   0.00000000    
  -9.39000025E-03   0.00000000    
  -9.37500037E-03   0.00000000    
  -9.35999956E-03   0.00000000    
  -9.34499968E-03   0.00000000    
  -9.32999980E-03   0.00000000    
  -9.31499992E-03   0.00000000    
  -9.30000003E-03   0.00000000    
  -9.28500015E-03   0.00000000    
  -9.27000027E-03   0.00000000    
  -9.25500039E-03   0.00000000    
  -9.23999958E-03   0.00000000    
  -9.22499970E-03   0.00000000    
  -9.20999981E-03   0.00000000    
  -9.19499993E-03   0.00000000    
  -9.18000005E-03   0.00000000    
  -9.16500017E-03   0.00000000    
  -9.15000029E-03   0.00000000    
  -9.13500041E-03   0.00000000    
  -9.11999959E-03   0.00000000    
  -9.10499971E-03   0.00000000    
  -9.08999983E-03   0.00000000    
  -9.07499995E-03   0.00000000    
  -9.06000007E-03  -0.00000000    
  -9.04500019E-03  -0.00000000    
  -9.03000031E-03  -1.55999538E-38
  -9.01500043E-03  -2.38886272E-38
  -8.99999961E-03  -3.24431087E-38
  -8.98499973E-03  -4.13231398E-38
  -8.96999985E-03  -5.01088804E-38
  -8.95499997E-03  -5.70423427E-38
  -8.94000009E-03  -6.38398285E-38
  -8.92500021E-03  -7.01342426E-38
  -8.91000032E-03  -7.25836955E-38
  -8.89500044E-03  -7.21543994E-38
  -8.87999963E-03  -6.80247616E-38
  -8.86499975E-03  -7.78467596E-38
  -8.84999987E-03  -8.94298086E-38
  -8.83499999E-03  -1.02331692E-37
  -8.82000010E-03  -1.15737769E-37
  -8.80500022E-03  -1.28508632E-37
  -8.79000034E-03  -1.39266848E-37
  -8.77500046E-03  -1.46441822E-37
  -8.75999965E-03  -1.48308710E-37
  -8.74499977E-03  -1.42924406E-37
  -8.72999988E-03  -1.30463320E-37
  -8.71500000E-03  -9.67024187E-38
  -8.70000012E-03  -6.78536350E-38
  -8.68500024E-03  -2.17634712E-38
  -8.67000036E-03   3.70584169E-38
  -8.65499955E-03   1.20606183E-37
  -8.63999967E-03   2.16852350E-37
  -8.62499978E-03   3.23970833E-37
  -8.60999990E-03   4.39184292E-37
  -8.59500002E-03   5.48698391E-37
  -8.58000014E-03   6.60296096E-37
  -8.56500026E-03   7.69389446E-37
  -8.55000038E-03   8.71660289E-37
  -8.53499956E-03   9.58322236E-37
  -8.51999968E-03   1.02432218E-36
  -8.50499980E-03   1.04715326E-36
  -8.48999992E-03   1.02919224E-36
  -8.47500004E-03   9.64359433E-37
  -8.46000016E-03   8.46800850E-37
  -8.44500028E-03   6.74424369E-37
  -8.43000039E-03   4.45202611E-37
  -8.41499958E-03   1.60162820E-37
  -8.39999970E-03  -1.76921016E-37
  -8.38499982E-03  -5.59281580E-37
  -8.36999994E-03  -9.77022508E-37
  -8.35500006E-03  -1.41674719E-36
  -8.34000017E-03  -1.86289434E-36
  -8.32500029E-03  -2.29617278E-36
  -8.31000041E-03  -2.69033359E-36
  -8.29499960E-03  -3.04398474E-36
  -8.27999972E-03  -3.30651874E-36
  -8.26499984E-03  -3.46509246E-36
  -8.24999996E-03  -3.49763881E-36
  -8.23500007E-03  -3.38395185E-36
  -8.22000019E-03  -3.10838366E-36
  -8.20500031E-03  -2.66021747E-36
  -8.19000043E-03  -2.03521863E-36
  -8.17499962E-03  -1.23690907E-36
  -8.15999974E-03  -2.77399116E-37
  -8.14499985E-03   8.21762674E-37
  -8.12999997E-03   2.02947693E-36
  -8.11500009E-03   3.30517278E-36
  -8.10000021E-03   4.59937491E-36
  -8.08500033E-03   5.85484578E-36
  -8.07000045E-03   7.00172836E-36
  -8.05499963E-03   7.98476349E-36
  -8.03999975E-03   8.72826438E-36
  -8.02499987E-03   9.16448514E-36
  -8.00999999E-03   9.23070499E-36
  -7.99500011E-03   8.87331711E-36
  -7.98000023E-03   8.05161040E-36
  -7.96500035E-03   6.74159283E-36
  -7.95000046E-03   4.93957520E-36
  -7.93499965E-03   2.66522538E-36
  -7.91999977E-03  -3.60284177E-38
  -7.90499989E-03  -3.09146692E-36
  -7.89000001E-03  -6.40066934E-36
  -7.87500013E-03  -9.83692617E-36
  -7.86000025E-03  -1.32494815E-35
  -7.84500036E-03  -1.64674892E-35
  -7.82999955E-03  -1.93068160E-35
  -7.81499967E-03  -2.15727248E-35
  -7.79999979E-03  -2.30750029E-35
  -7.78499991E-03  -2.36331073E-35
  -7.77000003E-03  -2.30879101E-35
  -7.75500014E-03  -2.13127486E-35
  -7.73999980E-03  -1.82244471E-35
  -7.72499992E-03  -1.37936757E-35
  -7.71000003E-03  -8.05427937E-36
  -7.69500015E-03  -1.11069544E-36
  -7.67999981E-03   6.85699490E-36
  -7.66499992E-03   1.55909122E-35
  -7.65000004E-03   2.47570819E-35
  -7.63500016E-03   3.39508712E-35
  -7.61999981E-03   4.27069983E-35
  -7.60499993E-03   5.05137416E-35
  -7.59000005E-03   5.68317195E-35
  -7.57500017E-03   6.11169417E-35
  -7.55999982E-03   6.28473176E-35
  -7.54499994E-03   6.15523108E-35
  -7.53000006E-03   5.68428660E-35
  -7.51500018E-03   4.84443205E-35
  -7.49999983E-03   3.62259837E-35
  -7.48499995E-03   2.02292777E-35
  -7.47000007E-03   6.91168383E-37
  -7.45500019E-03  -2.19385415E-35
  -7.43999984E-03  -4.69877435E-35
  -7.42499996E-03  -7.35623102E-35
  -7.41000008E-03  -1.00557446E-34
  -7.39500020E-03  -1.26680811E-34
  -7.37999985E-03  -1.50488061E-34
  -7.36499997E-03  -1.70431275E-34
  -7.35000009E-03  -1.84919393E-34
  -7.33500021E-03  -1.92388924E-34
  -7.31999986E-03  -1.91384290E-34
  -7.30499998E-03  -1.80644152E-34
  -7.29000010E-03  -1.59191116E-34
  -7.27500021E-03  -1.26420778E-34
  -7.25999987E-03  -8.21854624E-35
  -7.24499999E-03  -2.68681074E-35
  -7.23000010E-03   3.85586369E-35
  -7.21500022E-03   1.12492961E-34
  -7.19999988E-03   1.92688871E-34
  -7.18499999E-03   2.76269274E-34
  -7.17000011E-03   3.59771342E-34
  -7.15500023E-03   4.39225117E-34
  -7.13999989E-03   5.10267909E-34
  -7.12500000E-03   5.68292790E-34
  -7.11000012E-03   6.08629144E-34
  -7.09499978E-03   6.26751180E-34
  -7.07999989E-03   6.18509403E-34
  -7.06500001E-03   5.80375586E-34
  -7.05000013E-03   5.09693340E-34
  -7.03499978E-03   4.04922677E-34
  -7.01999990E-03   2.65866011E-34
  -7.00500002E-03   9.38637692E-35
  -6.99000014E-03  -1.08054471E-34
  -6.97499979E-03  -3.35075767E-34
  -6.95999991E-03  -5.80578175E-34
  -6.94500003E-03  -8.36184692E-34
  -6.93000015E-03  -1.09190366E-33
  -6.91499980E-03  -1.33636103E-33
  -6.89999992E-03  -1.55712539E-33
  -6.88500004E-03  -1.74112515E-33
  -6.87000016E-03  -1.87514583E-33
  -6.85499981E-03  -1.94640191E-33
  -6.83999993E-03  -1.94316104E-33
  -6.82500005E-03  -1.85540285E-33
  -6.81000017E-03  -1.67548444E-33
  -6.79499982E-03  -1.39878685E-33
  -6.77999994E-03  -1.02430622E-33
  -6.76500006E-03  -5.55161691E-34
  -6.75000018E-03   1.01509917E-36
  -6.73499983E-03   6.31843780E-34
  -6.71999995E-03   1.32013627E-33
  -6.70500007E-03   2.04404288E-33
  -6.69000018E-03   2.77742040E-33
  -6.67499984E-03   3.49043321E-33
  -6.65999996E-03   4.15038843E-33
  -6.64500007E-03   4.72279798E-33
  -6.63000019E-03   5.17264093E-33
  -6.61499985E-03   5.46580629E-33
  -6.59999996E-03   5.57066406E-33
  -6.58500008E-03   5.45970878E-33
  -6.57000020E-03   5.11122907E-33
  -6.55499985E-03   4.51090851E-33
  -6.53999997E-03   3.65330016E-33
  -6.52500009E-03   2.54308780E-33
  -6.51000021E-03   1.19605972E-33
  -6.49499986E-03  -3.60293105E-34
  -6.47999998E-03  -2.08660147E-33
  -6.46500010E-03  -3.93193567E-33
  -6.45000022E-03  -5.83465180E-33
  -6.43499987E-03  -7.72378620E-33
  -6.41999999E-03  -9.52100172E-33
  -6.40500011E-03  -1.11430590E-32
  -6.39000023E-03  -1.25047576E-32
  -6.37499988E-03  -1.35222963E-32
  -6.36000000E-03  -1.41168981E-32
  -6.34500012E-03  -1.42186489E-32
  -6.32999977E-03  -1.37703271E-32
  -6.31499989E-03  -1.27311328E-32
  -6.30000001E-03  -1.10800768E-32
  -6.28500013E-03  -8.81892008E-33
  -6.26999978E-03  -5.97442506E-33
  -6.25499990E-03  -2.59980192E-33
  -6.24000002E-03   1.22481589E-33
  -6.22500014E-03   5.39297927E-33
  -6.20999979E-03   9.77370068E-33
  -6.19499991E-03   1.42144303E-32
  -6.18000003E-03   1.85452322E-32
  -6.16500014E-03   2.25840956E-32
  -6.14999980E-03   2.61432618E-32
  -6.13499992E-03   2.90363973E-32
  -6.12000003E-03   3.10863948E-32
  -6.10500015E-03   3.21335193E-32
  -6.08999981E-03   3.20435763E-32
  -6.07499992E-03   3.07157849E-32
  -6.06000004E-03   2.80899745E-32
  -6.04500016E-03   2.41527105E-32
  -6.02999981E-03   1.89420658E-32
  -6.01499993E-03   1.25506018E-32
  -6.00000005E-03   5.12637715E-33
  -5.98500017E-03  -3.12831667E-33
  -5.96999982E-03  -1.19605779E-32
  -5.95499994E-03  -2.10729844E-32
  -5.94000006E-03  -3.01320668E-32
  -5.92500018E-03  -3.87790208E-32
  -5.90999983E-03  -4.66424080E-32
  -5.89499995E-03  -5.33524383E-32
  -5.88000007E-03  -5.85563871E-32
  -5.86500019E-03  -6.19345463E-32
  -5.84999984E-03  -6.32160996E-32
  -5.83499996E-03  -6.21942306E-32
  -5.82000008E-03  -5.87396467E-32
  -5.80500020E-03  -5.28120107E-32
  -5.78999985E-03  -4.44683459E-32
  -5.77499997E-03  -3.38680376E-32
  -5.76000009E-03  -2.12738132E-32
  -5.74500021E-03  -7.04831996E-33
  -5.72999986E-03   8.35381223E-33
  -5.71499998E-03   2.43985093E-32
  -5.70000010E-03   4.04891770E-32
  -5.68500021E-03   5.59876146E-32
  -5.66999987E-03   7.02382854E-32
  -5.65499999E-03   8.25951760E-32
  -5.64000010E-03   9.24501563E-32
  -5.62500022E-03   9.92617993E-32
  -5.60999988E-03   1.02583358E-31
  -5.59500000E-03   1.02088475E-31
  -5.58000011E-03   9.75934613E-32
  -5.56500023E-03   8.90747948E-32
  -5.54999989E-03   7.66805763E-32
  -5.53500000E-03   6.07351776E-32
  -5.52000012E-03   4.17360680E-32
  -5.50499978E-03   2.03426248E-32
  -5.48999989E-03  -2.64330090E-33
  -5.47500001E-03  -2.63047953E-32
  -5.46000013E-03  -4.96445589E-32
  -5.44499978E-03  -7.16257801E-32
  -5.42999990E-03  -9.12178679E-32
  -5.41500002E-03  -1.07445050E-31
  -5.40000014E-03  -1.19435962E-31
  -5.38499979E-03  -1.26471896E-31
  -5.36999991E-03  -1.28031177E-31
  -5.35500003E-03  -1.23827315E-31
  -5.34000015E-03  -1.13838717E-31
  -5.32499980E-03  -9.83275751E-32
  -5.30999992E-03  -7.78463787E-32
  -5.29500004E-03  -5.32305866E-32
  -5.28000016E-03  -2.55767646E-32
  -5.26499981E-03   3.79404246E-33
  -5.24999993E-03   3.33870312E-32
  -5.23500005E-03   6.15972264E-32
  -5.22000017E-03   8.67838386E-32
  -5.20499982E-03   1.07352621E-31
  -5.18999994E-03   1.21842916E-31
  -5.17500006E-03   1.29015289E-31
  -5.16000018E-03   1.27935645E-31
  -5.14499983E-03   1.18051160E-31
  -5.12999995E-03   9.92534180E-32
  -5.11500007E-03   7.19247377E-32
  -5.10000018E-03   3.69633464E-32
  -5.08499984E-03  -4.21543919E-33
  -5.06999996E-03  -4.97045208E-32
  -5.05500007E-03  -9.71580582E-32
  -5.04000019E-03  -1.43872245E-31
  -5.02499985E-03  -1.86892270E-31
  -5.00999996E-03  -2.23142988E-31
  -4.99500008E-03  -2.49578845E-31
  -4.98000020E-03  -2.63347410E-31
  -4.96499985E-03  -2.61960045E-31
  -4.94999997E-03  -2.43461455E-31
  -4.93500009E-03  -2.06590240E-31
  -4.92000021E-03  -1.50920815E-31
  -4.90499986E-03  -7.69785759E-32
  -4.88999998E-03   1.36805810E-32
  -4.87500010E-03   1.18433630E-31
  -4.86000022E-03   2.33602866E-31
  -4.84499987E-03   3.54521832E-31
  -4.82999999E-03   4.75657018E-31
  -4.81500011E-03   5.90784606E-31
  -4.80000023E-03   6.93220240E-31
  -4.78499988E-03   7.76094990E-31
  -4.77000000E-03   8.32669887E-31
  -4.75500012E-03   8.56677055E-31
  -4.73999977E-03   8.42674943E-31
  -4.72499989E-03   7.86400360E-31
  -4.71000001E-03   6.85103263E-31
  -4.69500013E-03   5.37842644E-31
  -4.67999978E-03   3.45730380E-31
  -4.66499990E-03   1.12102406E-31
  -4.65000002E-03  -1.57395261E-31
  -4.63500014E-03  -4.54819594E-31
  -4.61999979E-03  -7.70050739E-31
  -4.60499991E-03  -1.09102502E-30
  -4.59000003E-03  -1.40408051E-30
  -4.57500014E-03  -1.69441060E-30
  -4.55999980E-03  -1.94661375E-30
  -4.54499992E-03  -2.14532553E-30
  -4.53000003E-03  -2.27591072E-30
  -4.51500015E-03  -2.32518970E-30
  -4.49999981E-03  -2.28216943E-30
  -4.48499992E-03  -2.13874727E-30
  -4.47000004E-03  -1.89035403E-30
  -4.45500016E-03  -1.53649732E-30
  -4.43999982E-03  -1.08117823E-30
  -4.42499993E-03  -5.33149130E-31
  -4.41000005E-03   9.40172372E-32
  -4.39500017E-03   7.82060670E-31
  -4.37999982E-03   1.50838448E-30
  -4.36499994E-03   2.24662718E-30
  -4.35000006E-03   2.96744822E-30
  -4.33500018E-03   3.63951107E-30
  -4.31999983E-03   4.23064141E-30
  -4.30499995E-03   4.70911613E-30
  -4.29000007E-03   5.04504910E-30
  -4.27500019E-03   5.21180980E-30
  -4.25999984E-03   5.18742723E-30
  -4.24499996E-03   4.95590374E-30
  -4.23000008E-03   4.50839436E-30
  -4.21500020E-03   3.84416256E-30
  -4.19999985E-03   2.97128315E-30
  -4.18499997E-03   1.90702104E-30
  -4.17000009E-03   6.77853660E-31
  -4.15500021E-03  -6.80893818E-31
  -4.13999986E-03  -2.12581063E-30
  -4.12499998E-03  -3.60656262E-30
  -4.11000010E-03  -5.06743126E-30
  -4.09500021E-03  -6.44919008E-30
  -4.07999987E-03  -7.69126894E-30
  -4.06499999E-03  -8.73413142E-30
  -4.05000011E-03  -9.52177733E-30
  -4.03500022E-03  -1.00042792E-29
  -4.01999988E-03  -1.01402484E-29
  -4.00500000E-03  -9.89911290E-30
  -3.99000011E-03  -9.26311065E-30
  -3.97500023E-03  -8.22888777E-30
  -3.95999989E-03  -6.80861450E-30
  -3.94500000E-03  -5.03053428E-30
  -3.93000012E-03  -2.93889349E-30
  -3.91499978E-03  -5.93207488E-31
  -3.89999989E-03   1.93313808E-30
  -3.88500001E-03   4.55494168E-30
  -3.86999990E-03   7.17784762E-30
  -3.85500002E-03   9.70153731E-30
  -3.83999990E-03   1.20233602E-29
  -3.82500002E-03   1.40422712E-29
  -3.80999991E-03   1.56629232E-29
  -3.79500003E-03   1.67997801E-29
  -3.77999991E-03   1.73810483E-29
  -3.76500003E-03   1.73522797E-29
  -3.74999992E-03   1.66794832E-29
  -3.73500003E-03   1.53515650E-29
  -3.71999992E-03   1.33819857E-29
  -3.70500004E-03   1.08095316E-29
  -3.68999992E-03   7.69809471E-30
  -3.67500004E-03   4.13545834E-30
  -3.65999993E-03   2.31056674E-31
  -3.64500005E-03  -3.88722026E-30
  -3.62999993E-03  -8.07710945E-30
  -3.61500005E-03  -1.21868183E-29
  -3.59999994E-03  -1.60604517E-29
  -3.58500006E-03  -1.95438511E-29
  -3.56999994E-03  -2.24906066E-29
  -3.55500006E-03  -2.47680053E-29
  -3.53999995E-03  -2.62627240E-29
  -3.52500007E-03  -2.68859128E-29
  -3.50999995E-03  -2.65776015E-29
  -3.49500007E-03  -2.53100688E-29
  -3.47999996E-03  -2.30901140E-29
  -3.46500007E-03  -1.99600506E-29
  -3.44999996E-03  -1.59973534E-29
  -3.43500008E-03  -1.13129223E-29
  -3.41999996E-03  -6.04799969E-30
  -3.40500008E-03  -3.69817505E-31
  -3.38999997E-03   5.53388811E-30
  -3.37500009E-03   1.14613061E-29
  -3.35999997E-03   1.72036957E-29
  -3.34500009E-03   2.25529782E-29
  -3.32999998E-03   2.73094850E-29
  -3.31500010E-03   3.12895516E-29
  -3.29999998E-03   3.43326804E-29
  -3.28500010E-03   3.63079473E-29
  -3.26999999E-03   3.71193897E-29
  -3.25500011E-03   3.67101868E-29
  -3.23999999E-03   3.50653915E-29
  -3.22500011E-03   3.22131193E-29
  -3.21000000E-03   2.82241422E-29
  -3.19500011E-03   2.32098587E-29
  -3.18000000E-03   1.73187279E-29
  -3.16499989E-03   1.07312771E-29
  -3.15000000E-03   3.65389573E-30
  -3.13499989E-03  -3.68833866E-30
  -3.12000001E-03  -1.10595654E-29
  -3.10499989E-03  -1.82214113E-29
  -3.09000001E-03  -2.49413284E-29
  -3.07499990E-03  -3.10006712E-29
  -3.06000002E-03  -3.62022047E-29
  -3.04499990E-03  -4.03767030E-29
  -3.03000002E-03  -4.33885114E-29
  -3.01499991E-03  -4.51397113E-29
  -3.00000003E-03  -4.55728921E-29
  -2.98499991E-03  -4.46723633E-29
  -2.97000003E-03  -4.24638664E-29
  -2.95499992E-03  -3.90127684E-29
  -2.94000003E-03  -3.44209362E-29
  -2.92499992E-03  -2.88224173E-29
  -2.91000004E-03  -2.23781444E-29
  -2.89499993E-03  -1.52699868E-29
  -2.88000004E-03  -7.69432034E-30
  -2.86499993E-03   1.44486981E-31
  -2.85000005E-03   8.04048367E-30
  -2.83499993E-03   1.57921305E-29
  -2.82000005E-03   2.32076875E-29
  -2.80499994E-03   3.01097931E-29
  -2.79000006E-03   3.63391353E-29
  -2.77499994E-03   4.17571193E-29
  -2.76000006E-03   4.62475634E-29
  -2.74499995E-03   4.97174000E-29
  -2.73000007E-03   5.20966036E-29
  -2.71499995E-03   5.33373599E-29
  -2.70000007E-03   5.34127360E-29
  -2.68499996E-03   5.23150763E-29
  -2.67000007E-03   5.00542452E-29
  -2.65499996E-03   4.66559990E-29
  -2.64000008E-03   4.21606377E-29
  -2.62499996E-03   3.66220785E-29
  -2.61000008E-03   3.01074429E-29
  -2.59499997E-03   2.26972003E-29
  -2.58000009E-03   1.44858700E-29
  -2.56499997E-03   5.58316596E-30
  -2.55000009E-03  -3.88454879E-30
  -2.53499998E-03  -1.37726756E-29
  -2.52000010E-03  -2.39169504E-29
  -2.50499998E-03  -3.41323807E-29
  -2.49000010E-03  -4.42128876E-29
  -2.47499999E-03  -5.39318764E-29
  -2.46000011E-03  -6.30440408E-29
  -2.44499999E-03  -7.12885617E-29
  -2.43000011E-03  -7.83938529E-29
  -2.41500000E-03  -8.40839407E-29
  -2.40000011E-03  -8.80863722E-29
  -2.38500000E-03  -9.01416344E-29
  -2.36999989E-03  -9.00137045E-29
  -2.35500000E-03  -8.75015636E-29
  -2.33999989E-03  -8.24510109E-29
  -2.32500001E-03  -7.47664421E-29
  -2.30999989E-03  -6.44220437E-29
  -2.29500001E-03  -5.14715852E-29
  -2.27999990E-03  -3.60563576E-29
  -2.26500002E-03  -1.84106640E-29
  -2.24999990E-03   1.13582132E-30
  -2.23500002E-03   2.21591255E-29
  -2.21999991E-03   4.41459164E-29
  -2.20500003E-03   6.65024994E-29
  -2.18999991E-03   8.85678908E-29
  -2.17500003E-03   1.09630794E-28
  -2.15999992E-03   1.28950242E-28