  -1.49999997E-02   0.00000000    
  -1.49849998E-02   0.00000000    
  -1.49699999E-02   0.00000000    
  -1.49550000E-02   0.00000000    
  -1.49400001E-02   0.00000000    
  -1.49250003E-02   0.00000000    
  -1.49100004E-02   0.00000000    
  -1.48949996E-02   0.00000000    
  -1.48799997E-02   0.00000000    
  -1.48649998E-02   0.00000000    
  -1.48499999E-02   0.00000000    
  -1.48350000E-02   0.00000000    
  -1.48200002E-02   0.00000000    
  -1.48050003E-02   0.00000000    
  -1.47900004E-02   0.00000000    
  -1.47749996E-02   0.00000000    
  -1.47599997E-02   0.00000000    
  -1.47449998E-02   0.00000000    
  -1.47299999E-02   0.00000000    
  -1.47150001E-02   0.00000000    
  -1.47000002E-02   0.00000000    
  -1.46850003E-02   0.00000000    
  -1.46700004E-02   0.00000000    
  -1.46549996E-02   0.00000000    
  -1.46399997E-02   0.00000000    
  -1.46249998E-02   0.00000000    
  -1.46100000E-02   0.00000000    
  -1.45950001E-02   0.00000000    
  -1.45800002E-02   0.00000000    
  -1.45650003E-02   0.00000000    
  -1.45500004E-02   0.00000000    
  -1.45349996E-02   0.00000000    
  -1.45199997E-02   0.00000000    
  -1.45049999E-02   0.00000000    
  -1.44900000E-02   0.00000000    
  -1.44750001E-02   0.00000000    
  -1.44600002E-02   0.00000000    
  -1.44450003E-02   0.00000000    
  -1.44300004E-02   0.00000000    
  -1.44149996E-02   0.00000000    
  -1.43999998E-02   0.00000000    
  -1.43849999E-02   0.00000000    
  -1.43700000E-02   0.00000000    
  -1.43550001E-02   0.00000000    
  -1.43400002E-02   0.00000000    
  -1.43250003E-02   0.00000000    
  -1.43100005E-02   0.00000000    
  -1.42949997E-02   0.00000000    
  -1.42799998E-02   0.00000000    
  -1.42649999E-02   0.00000000    
  -1.42500000E-02   0.00000000    
  -1.42350001E-02   0.00000000    
  -1.42200002E-02   0.00000000    
  -1.42050004E-02   0.00000000    
  -1.41899996E-02   0.00000000    
  -1.41749997E-02   0.00000000    
  -1.41599998E-02   0.00000000    
  -1.41449999E-02   0.00000000    
  -1.41300000E-02   0.00000000    
  -1.41150001E-02   0.00000000    
  -1.41000003E-02   0.00000000    
  -1.40850004E-02   0.00000000    
  -1.40699996E-02   0.00000000    
  -1.40549997E-02   0.00000000    
  -1.40399998E-02   0.00000000    
  -1.40249999E-02   0.00000000    
  -1.40100000E-02   0.00000000    
  -1.39950002E-02   0.00000000    
  -1.39800003E-02   0.00000000    
  -1.39650004E-02   0.00000000    
  -1.39499996E-02   0.00000000    
  -1.39349997E-02   0.00000000    
  -1.39199998E-02   0.00000000    
  -1.39049999E-02   0.00000000    
  -1.38900001E-02   0.00000000    
  -1.38750002E-02   0.00000000    
  -1.38600003E-02   0.00000000    
  -1.38450004E-02   0.00000000    
  -1.38299996E-02   0.00000000    
  -1.38149997E-02   0.00000000    
  -1.37999998E-02   0.00000000    
  -1.37850000E-02   0.00000000    
  -1.37700001E-02   0.00000000    
  -1.37550002E-02   0.00000000    
  -1.37400003E-02   0.00000000    
  -1.37250004E-02   0.00000000    
  -1.37099996E-02   0.00000000    
  -1.36949997E-02   0.00000000    
  -1.36799999E-02   0.00000000    
  -1.36650000E-02   0.00000000    
  -1.36500001E-02   0.00000000    
  -1.36350002E-02   0.00000000    
  -1.36200003E-02   0.00000000    
  -1.36050005E-02   0.00000000    
  -1.35899996E-02   0.00000000    
  -1.35749998E-02   0.00000000    
  -1.35599999E-02   0.00000000    
  -1.35450000E-02   0.00000000    
  -1.35300001E-02   0.00000000    
  -1.35150002E-02   0.00000000    
  -1.35000004E-02   0.00000000    
  -1.34849995E-02   0.00000000    
  -1.34699997E-02   0.00000000    
  -1.34549998E-02   0.00000000    
  -1.34399999E-02   0.00000000    
  -1.34250000E-02   0.00000000    
  -1.34100001E-02   0.00000000    
  -1.33950002E-02   0.00000000    
  -1.33800004E-02   0.00000000    
  -1.33649996E-02   0.00000000    
  -1.33499997E-02   0.00000000    
  -1.33349998E-02   0.00000000    
  -1.33199999E-02   0.00000000    
  -1.33050000E-02   0.00000000    
  -1.32900001E-02   0.00000000    
  -1.32750003E-02   0.00000000    
  -1.32600004E-02   0.00000000    
  -1.32449996E-02   0.00000000    
  -1.32299997E-02   0.00000000    
  -1.32149998E-02   0.00000000    
  -1.31999999E-02   0.00000000    
  -1.31850000E-02   0.00000000    
  -1.31700002E-02   0.00000000    
  -1.31550003E-02   0.00000000    
  -1.31400004E-02   0.00000000    
  -1.31249996E-02   0.00000000    
  -1.31099997E-02   0.00000000    
  -1.30949998E-02   0.00000000    
  -1.30799999E-02   0.00000000    
  -1.30650001E-02   0.00000000    
  -1.30500002E-02   0.00000000    
  -1.30350003E-02   0.00000000    
  -1.30200004E-02   0.00000000    
  -1.30049996E-02   0.00000000    
  -1.29899997E-02   0.00000000    
  -1.29749998E-02   0.00000000    
  -1.29600000E-02   0.00000000    
  -1.29450001E-02   0.00000000    
  -1.29300002E-02   0.00000000    
  -1.29150003E-02   0.00000000    
  -1.29000004E-02   0.00000000    
  -1.28849996E-02   0.00000000    
  -1.28699997E-02   0.00000000    
  -1.28549999E-02   0.00000000    
  -1.28400000E-02   0.00000000    
  -1.28250001E-02   0.00000000    
  -1.28100002E-02   0.00000000    
  -1.27950003E-02   0.00000000    
  -1.27800005E-02   0.00000000    
  -1.27649996E-02   0.00000000    
  -1.27499998E-02   0.00000000    
  -1.27349999E-02   0.00000000    
  -1.27200000E-02   0.00000000    
  -1.27050001E-02   0.00000000    
  -1.26900002E-02   0.00000000    
  -1.26750004E-02   0.00000000    
  -1.26599995E-02   0.00000000    
  -1.26449997E-02   0.00000000    
  -1.26299998E-02   0.00000000    
  -1.26149999E-02   0.00000000    
  -1.26000000E-02   0.00000000    
  -1.25850001E-02   0.00000000    
  -1.25700003E-02   0.00000000    
  -1.25550004E-02   0.00000000    
  -1.25399996E-02   0.00000000    
  -1.25249997E-02   0.00000000    
  -1.25099998E-02   0.00000000    
  -1.24949999E-02   0.00000000    
  -1.24800000E-02   0.00000000    
  -1.24650002E-02   0.00000000    
  -1.24500003E-02   0.00000000    
  -1.24350004E-02   0.00000000    
  -1.24199996E-02   0.00000000    
  -1.24049997E-02   0.00000000    
  -1.23899998E-02   0.00000000    
  -1.23749999E-02   0.00000000    
  -1.23600001E-02   0.00000000    
  -1.23450002E-02   0.00000000    
  -1.23300003E-02   0.00000000    
  -1.23150004E-02   0.00000000    
  -1.22999996E-02  -0.00000000    
  -1.22849997E-02  -0.00000000    
  -1.22699998E-02  -0.00000000    
  -1.22550000E-02  -0.00000000    
  -1.22400001E-02  -0.00000000    
  -1.22250002E-02  -0.00000000    
  -1.22100003E-02  -0.00000000    
  -1.21950004E-02  -0.00000000    
  -1.21799996E-02  -0.00000000    
  -1.21649997E-02  -0.00000000    
  -1.21499998E-02  -0.00000000    
  -1.21350000E-02  -0.00000000    
  -1.21200001E-02  -0.00000000    
  -1.21050002E-02  -0.00000000    
  -1.20900003E-02  -0.00000000    
  -1.20750004E-02  -0.00000000    
  -1.20599996E-02  -0.00000000    
  -1.20449997E-02  -0.00000000    
  -1.20299999E-02  -0.00000000    
  -1.20150000E-02  -0.00000000    
  -1.20000001E-02   0.00000000    
  -1.19850002E-02   0.00000000    
  -1.19700003E-02   0.00000000    
  -1.19550005E-02   0.00000000    
  -1.19399996E-02   1.54881806E-38
  -1.19249998E-02   2.13358327E-38
  -1.19099999E-02   2.92121124E-38
  -1.18950000E-02   3.82200401E-38
  -1.18800001E-02   4.84101368E-38
  -1.18650002E-02   5.98183878E-38
  -1.18500004E-02   7.24657286E-38
  -1.18349995E-02   8.63512456E-38
  -1.18199997E-02   1.13811499E-37
  -1.18049998E-02   1.43670614E-37
  -1.17899999E-02   1.74470806E-37
  -1.17750000E-02   2.06926538E-37
  -1.17600001E-02   2.40072045E-37
  -1.17450003E-02   2.73343758E-37
  -1.17300004E-02   3.05582479E-37
  -1.17149996E-02   3.35343054E-37
  -1.16999997E-02   3.50707092E-37
  -1.16849998E-02   3.62723552E-37
  -1.16699999E-02   3.72048778E-37
  -1.16550000E-02   3.75231183E-37
  -1.16400002E-02   3.55687038E-37
  -1.16250003E-02   3.18028050E-37
  -1.16100004E-02   2.57484938E-37
  -1.15949996E-02   1.69970475E-37
  -1.15799997E-02   5.14959753E-38
  -1.15649998E-02  -1.01825387E-37
  -1.15499999E-02  -2.93548733E-37
  -1.15350001E-02  -5.26737824E-37
  -1.15200002E-02  -8.03654579E-37
  -1.15050003E-02  -1.12546042E-36
  -1.14900004E-02  -1.49201077E-36
  -1.14749996E-02  -1.90156605E-36
  -1.14599997E-02  -2.35047015E-36
  -1.14449998E-02  -2.83219827E-36
  -1.14300000E-02  -3.33984534E-36
  -1.14150001E-02  -3.86181642E-36
  -1.14000002E-02  -4.37011226E-36
  -1.13850003E-02  -4.85750584E-36
  -1.13700004E-02  -5.30270962E-36
  -1.13549996E-02  -5.68310587E-36
  -1.13399997E-02  -5.97415516E-36
  -1.13249999E-02  -6.14947630E-36
  -1.13100000E-02  -6.18159935E-36
  -1.12950001E-02  -6.04277636E-36
  -1.12800002E-02  -5.70585525E-36
  -1.12650003E-02  -5.14537030E-36
  -1.12500004E-02  -4.33871851E-36
  -1.12349996E-02  -3.26741045E-36
  -1.12199998E-02  -1.91850217E-36
  -1.12049999E-02  -2.85871254E-37
  -1.11900000E-02   1.62846827E-36
  -1.11750001E-02   3.81300119E-36
  -1.11600002E-02   6.24544224E-36
  -1.11450003E-02   8.88560442E-36
  -1.11300005E-02   1.17043429E-35
  -1.11149997E-02   1.46392281E-35
  -1.10999998E-02   1.76252406E-35
  -1.10849999E-02   2.05886573E-35
  -1.10700000E-02   2.34490890E-35
  -1.10550001E-02   2.61221965E-35
  -1.10400002E-02   2.85230519E-35
  -1.10250004E-02   3.05700737E-35
  -1.10099996E-02   3.21894922E-35
  -1.09949997E-02   3.33201364E-35
  -1.09799998E-02   3.39183299E-35
  -1.09649999E-02   3.39627811E-35
  -1.09500000E-02   3.34589687E-35
  -1.09350001E-02   3.24429295E-35
  -1.09200003E-02   3.09840136E-35
  -1.09050004E-02   2.91858487E-35
  -1.08899996E-02   2.71860878E-35
  -1.08749997E-02   2.51533578E-35
  -1.08599998E-02   2.32823804E-35
  -1.08449999E-02   2.17858377E-35
  -1.08300000E-02   2.08835396E-35
  -1.08150002E-02   2.07886606E-35
  -1.08000003E-02   2.16911596E-35
  -1.07850004E-02   2.37388673E-35
  -1.07699996E-02   2.70163557E-35
  -1.07549997E-02   3.15223102E-35
  -1.07399998E-02   3.71466288E-35
  -1.07249999E-02   4.36482749E-35
  -1.07100001E-02   5.06349931E-35
  -1.06950002E-02   5.75464694E-35
  -1.06800003E-02   6.36425958E-35
  -1.06650004E-02   6.79984222E-35
  -1.06499996E-02   6.95077443E-35
  -1.06349997E-02   6.68968555E-35
  -1.06199998E-02   5.87497670E-35
  -1.06050000E-02   4.35461337E-35
  -1.05900001E-02   1.97128265E-35
  -1.05750002E-02  -1.43105862E-35
  -1.05600003E-02  -5.99926801E-35
  -1.05450004E-02  -1.18618423E-34
  -1.05299996E-02  -1.91186545E-34
  -1.05149997E-02  -2.78298609E-34
  -1.04999999E-02  -3.80043224E-34
  -1.04850000E-02  -4.95880226E-34
  -1.04700001E-02  -6.24529633E-34
  -1.04550002E-02  -7.63871678E-34
  -1.04400003E-02  -9.10863940E-34
  -1.04250005E-02  -1.06148306E-33
  -1.04099996E-02  -1.21069839E-33
  -1.03949998E-02  -1.35248367E-33
  -1.03799999E-02  -1.47987438E-33
  -1.03650000E-02  -1.58507497E-33
  -1.03500001E-02  -1.65962225E-33
  -1.03350002E-02  -1.69460588E-33
  -1.03200004E-02  -1.68094609E-33
  -1.03049995E-02  -1.60972876E-33
  -1.02899997E-02  -1.47259182E-33
  -1.02749998E-02  -1.26215326E-33
  -1.02599999E-02  -9.72473803E-34
  -1.02450000E-02  -5.99535823E-34
  -1.02300001E-02  -1.41723121E-34
  -1.02150002E-02   3.99718727E-34
  -1.02000004E-02   1.02026536E-33
  -1.01849996E-02   1.71176406E-33
  -1.01699997E-02   2.46217651E-33
  -1.01549998E-02   3.25544050E-33
  -1.01399999E-02   4.07147199E-33
  -1.01250000E-02   4.88633606E-33
  -1.01100001E-02   5.67259631E-33
  -1.00950003E-02   6.39986071E-33
  -1.00800004E-02   7.03553426E-33
  -1.00649996E-02   7.54576419E-33
  -1.00499997E-02   7.89658461E-33
  -1.00349998E-02   8.05522491E-33
  -1.00199999E-02   7.99156749E-33
  -1.00050000E-02   7.67969855E-33
  -9.99000017E-03   7.09950907E-33
  -9.97500028E-03   6.23828975E-33
  -9.96000040E-03   5.09224226E-33
  -9.94499959E-03   3.66783625E-33
  -9.92999971E-03   1.98293334E-33
  -9.91499983E-03   6.75972331E-35
  -9.89999995E-03  -2.03549281E-33
  -9.88500006E-03  -4.27108636E-33
  -9.87000018E-03  -6.57193912E-33
  -9.85500030E-03  -8.85996320E-33
  -9.84000042E-03  -1.10479880E-32
  -9.82499961E-03  -1.30421319E-32
  -9.80999973E-03  -1.47447737E-32
  -9.79499985E-03  -1.60580845E-32
  -9.77999996E-03  -1.68880335E-32
  -9.76500008E-03  -1.71487802E-32
  -9.75000020E-03  -1.67672970E-32
  -9.73500032E-03  -1.56880830E-32
  -9.72000044E-03  -1.38777717E-32
  -9.70499963E-03  -1.13294131E-32
  -9.68999974E-03  -8.06622828E-33
  -9.67499986E-03  -4.14459655E-33
  -9.65999998E-03   3.43945836E-34
  -9.64500010E-03   5.27190849E-33
  -9.63000022E-03   1.04764413E-32
  -9.61500034E-03   1.57614720E-32
  -9.60000046E-03   2.09015018E-32
  -9.58499964E-03   2.56471003E-32
  -9.56999976E-03   2.97321019E-32
  -9.55499988E-03   3.28824150E-32
  -9.54000000E-03   3.48262712E-32
  -9.52500012E-03   3.53056936E-32
  -9.51000024E-03   3.40888483E-32
  -9.49500035E-03   3.09828631E-32
  -9.47999954E-03   2.58467022E-32
  -9.46499966E-03   1.86035161E-32
  -9.44999978E-03   9.25193473E-33
  -9.43499990E-03  -2.12429131E-33
  -9.42000002E-03  -1.53488838E-32
  -9.40500014E-03  -3.01484296E-32
  -9.39000025E-03  -4.61510690E-32
  -9.37500037E-03  -6.28889536E-32
  -9.35999956E-03  -7.98047640E-32
  -9.34499968E-03  -9.62624667E-32
  -9.32999980E-03  -1.11562478E-31
  -9.31499992E-03  -1.24960927E-31
  -9.30000003E-03  -1.35692897E-31
  -9.28500015E-03  -1.42999005E-31
  -9.27000027E-03  -1.46154714E-31
  -9.25500039E-03  -1.44501546E-31
  -9.23999958E-03  -1.37478978E-31
  -9.22499970E-03  -1.24656145E-31
  -9.20999981E-03  -1.05761731E-31
  -9.19499993E-03  -8.07110702E-32
  -9.18000005E-03  -4.96287837E-32
  -9.16500017E-03  -1.28659017E-32
  -9.15000029E-03   2.89898947E-32
  -9.13500041E-03   7.51119085E-32
  -9.11999959E-03   1.24440747E-31
  -9.10499971E-03   1.75699930E-31
  -9.08999983E-03   2.27420964E-31
  -9.07499995E-03   2.77977754E-31
  -9.06000007E-03   3.25630061E-31
  -9.04500019E-03   3.68574632E-31
  -9.03000031E-03   4.05003131E-31
  -9.01500043E-03   4.33165107E-31
  -8.99999961E-03   4.51433606E-31
  -8.98499973E-03   4.58371891E-31
  -8.96999985E-03   4.52797697E-31
  -8.95499997E-03   4.33843462E-31
  -8.94000009E-03   4.01008989E-31
  -8.92500021E-03   3.54204777E-31
  -8.91000032E-03   2.93782957E-31
  -8.89500044E-03   2.20554220E-31
  -8.87999963E-03   1.35789075E-31
  -8.86499975E-03   4.12024935E-32
  -8.84999987E-03  -6.10788393E-32
  -8.83499999E-03  -1.68565972E-31
  -8.82000010E-03  -2.78473013E-31
  -8.80500022E-03  -3.87796644E-31
  -8.79000034E-03  -4.93407265E-31
  -8.77500046E-03  -5.92148790E-31
  -8.75999965E-03  -6.80943424E-31
  -8.74499977E-03  -7.56896910E-31
  -8.72999988E-03  -8.17400874E-31
  -8.71500000E-03  -8.60226484E-31
  -8.70000012E-03  -8.83606784E-31
  -8.68500024E-03  -8.86301488E-31
  -8.67000036E-03  -8.67643665E-31
  -8.65499955E-03  -8.27562881E-31
  -8.63999967E-03  -7.66584770E-31
  -8.62499978E-03  -6.85805833E-31
  -8.60999990E-03  -5.86844490E-31
  -8.59500002E-03  -4.71769658E-31
  -8.58000014E-03  -3.43010286E-31
  -8.56500026E-03  -2.03250567E-31
  -8.55000038E-03  -5.53156256E-32
  -8.53499956E-03   9.79452750E-32
  -8.51999968E-03   2.53771786E-31
  -8.50499980E-03   4.09594189E-31
  -8.48999992E-03   5.63116384E-31
  -8.47500004E-03   7.12374450E-31
  -8.46000016E-03   8.55764025E-31
  -8.44500028E-03   9.92033443E-31
  -8.43000039E-03   1.12023878E-30
  -8.41499958E-03   1.23966158E-30
  -8.39999970E-03   1.34969095E-30
  -8.38499982E-03   1.44967361E-30
  -8.36999994E-03   1.53874120E-30
  -8.35500006E-03   1.61562276E-30
  -8.34000017E-03   1.67845453E-30
  -8.32500029E-03   1.72460369E-30
  -8.31000041E-03   1.75051703E-30
  -8.29499960E-03   1.75161523E-30
  -8.27999972E-03   1.72224705E-30
  -8.26499984E-03   1.65571802E-30
  -8.24999996E-03   1.54440905E-30
  -8.23500007E-03   1.37999266E-30
  -8.22000019E-03   1.15375664E-30
  -8.20500031E-03   8.57032995E-31
  -8.19000043E-03   4.81732302E-31
  -8.17499962E-03   2.09688077E-32
  -8.15999974E-03  -5.30236961E-31
  -8.14499985E-03  -1.17420526E-30
  -8.12999997E-03  -1.90982135E-30
  -8.11500009E-03  -2.73177721E-30
  -8.10000021E-03  -3.62986863E-30
  -8.08500033E-03  -4.58839531E-30
  -8.07000045E-03  -5.58571443E-30
  -8.05499963E-03  -6.59398841E-30
  -8.03999975E-03  -7.57918358E-30
  -8.02499987E-03  -8.50134818E-30
  -8.00999999E-03  -9.31521984E-30
  -7.99500011E-03  -9.97117052E-30
  -7.98000023E-03  -1.04165140E-29
  -7.96500035E-03  -1.05971677E-29
  -7.95000046E-03  -1.04596480E-29
  -7.93499965E-03  -9.95337372E-30
  -7.91999977E-03  -9.03320577E-30
  -7.90499989E-03  -7.66216257E-30
  -7.89000001E-03  -5.81421699E-30
  -7.87500013E-03  -3.47705963E-30
  -7.86000025E-03  -6.54716499E-31
  -7.84500036E-03   2.63011520E-30
  -7.82999955E-03   6.33415263E-30
  -7.81499967E-03   1.03921653E-29
  -7.79999979E-03   1.47163045E-29
  -7.78499991E-03   1.91962403E-29
  -7.77000003E-03   2.37002095E-29
  -7.75500014E-03   2.80770584E-29
  -7.73999980E-03   3.21593016E-29
  -7.72499992E-03   3.57672485E-29
  -7.71000003E-03   3.87141229E-29
  -7.69500015E-03   4.08121407E-29
  -7.67999981E-03   4.18793496E-29
  -7.66499992E-03   4.17471586E-29
  -7.65000004E-03   4.02682461E-29
  -7.63500016E-03   3.73246367E-29
  -7.61999981E-03   3.28356370E-29
  -7.60499993E-03   2.67652924E-29
  -7.59000005E-03   1.91290434E-29
  -7.57500017E-03   9.99918603E-30
  -7.55999982E-03  -4.91144815E-31
  -7.54499994E-03  -1.21458531E-29
  -7.53000006E-03  -2.47058730E-29
  -7.51500018E-03  -3.78515139E-29
  -7.49999983E-03  -5.12073416E-29
  -7.48499995E-03  -6.43496468E-29
  -7.47000007E-03  -7.68165644E-29
  -7.45500019E-03  -8.81206116E-29
  -7.43999984E-03  -9.77636165E-29
  -7.42499996E-03  -1.05253468E-28
  -7.41000008E-03  -1.10122532E-28
  -7.39500020E-03  -1.11946893E-28
  -7.37999985E-03  -1.10366114E-28
  -7.36499997E-03  -1.05102511E-28
  -7.35000009E-03  -9.59793447E-29
  -7.33500021E-03  -8.29372119E-29
  -7.31999986E-03  -6.60475827E-29
  -7.30499998E-03  -4.55229654E-29
  -7.29000010E-03  -2.17228828E-29
  -7.27500021E-03   4.84498109E-30
  -7.25999987E-03   3.35288966E-29
  -7.24499999E-03   6.35428567E-29
  -7.23000010E-03   9.39821253E-29
  -7.21500022E-03   1.23844554E-28
  -7.19999988E-03   1.52057369E-28
  -7.18499999E-03   1.77508991E-28
  -7.17000011E-03   1.99085064E-28
  -7.15500023E-03   2.15707885E-28
  -7.13999989E-03   2.26378043E-28
  -7.12500000E-03   2.30216734E-28
  -7.11000012E-03   2.26507754E-28
  -7.09499978E-03   2.14736952E-28
  -7.07999989E-03   1.94628173E-28
  -7.06500001E-03   1.66173545E-28
  -7.05000013E-03   1.29656854E-28
  -7.03499978E-03   8.56684334E-29
  -7.01999990E-03   3.51104763E-29
  -7.00500002E-03  -2.08083896E-29
  -6.99000014E-03  -8.05897862E-29
  -6.97499979E-03  -1.42473930E-28
  -6.95999991E-03  -2.04479521E-28
  -6.94500003E-03  -2.64454617E-28
  -6.93000015E-03  -3.20137825E-28
  -6.91499980E-03  -3.69227926E-28
  -6.89999992E-03  -4.09460651E-28
  -6.88500004E-03  -4.38690152E-28
  -6.87000016E-03  -4.54972734E-28
  -6.85499981E-03  -4.56650123E-28
  -6.83999993E-03  -4.42429249E-28
  -6.82500005E-03  -4.11455625E-28
  -6.81000017E-03  -3.63376999E-28
  -6.79499982E-03  -2.98394774E-28
  -6.77999994E-03  -2.17300365E-28
  -6.76500006E-03  -1.21494053E-28
  -6.75000018E-03  -1.29843729E-29
  -6.73499983E-03   1.05632840E-28
  -6.71999995E-03   2.31216990E-28
  -6.70500007E-03   3.60146661E-28
  -6.69000018E-03   4.88404230E-28
  -6.67499984E-03   6.11679587E-28
  -6.65999996E-03   7.25491310E-28
  -6.64500007E-03   8.25321359E-28
  -6.63000019E-03   9.06761233E-28
  -6.61499985E-03   9.65663104E-28
  -6.59999996E-03   9.98294616E-28
  -6.58500008E-03   1.00148867E-27
  -6.57000020E-03   9.72785963E-28
  -6.55499985E-03   9.10563692E-28
  -6.53999997E-03   8.14145188E-28
  -6.52500009E-03   6.83887179E-28
  -6.51000021E-03   5.21238688E-28
  -6.49499986E-03   3.28768977E-28
  -6.47999998E-03   1.10162049E-28
  -6.46500010E-03  -1.29825204E-28
  -6.45000022E-03  -3.85440693E-28
  -6.43499987E-03  -6.50051286E-28
  -6.41999999E-03  -9.16291312E-28
  -6.40500011E-03  -1.17624284E-27
  -6.39000023E-03  -1.42164435E-27
  -6.37499988E-03  -1.64412094E-27
  -6.36000000E-03  -1.83543358E-27
  -6.34500012E-03  -1.98773650E-27
  -6.32999977E-03  -2.09383849E-27
  -6.31499989E-03  -2.14745984E-27
  -6.30000001E-03  -2.14347375E-27
  -6.28500013E-03  -2.07812791E-27
  -6.26999978E-03  -1.94923813E-27
  -6.25499990E-03  -1.75634103E-27
  -6.24000002E-03  -1.50080970E-27
  -6.22500014E-03  -1.18591515E-27
  -6.20999979E-03  -8.16838793E-28
  -6.19499991E-03  -4.00626121E-28
  -6.18000003E-03   5.39146454E-29
  -6.16500014E-03   5.36372645E-28
  -6.14999980E-03   1.03494843E-27
  -6.13499992E-03   1.53672098E-27
  -6.12000003E-03   2.02795878E-27
  -6.10500015E-03   2.49447140E-27
  -6.08999981E-03   2.92199183E-27
  -6.07499992E-03   3.29657923E-27
  -6.06000004E-03   3.60503155E-27
  -6.04500016E-03   3.83529920E-27
  -6.02999981E-03   3.97688163E-27
  -6.01499993E-03   4.02120306E-27
  -6.00000005E-03   3.96194759E-27
  -5.98500017E-03   3.79534964E-27
  -5.96999982E-03   3.52041890E-27
  -5.95499994E-03   3.13910519E-27
  -5.94000006E-03   2.65638086E-27
  -5.92500018E-03   2.08024547E-27
  -5.90999983E-03   1.42164310E-27
  -5.89499995E-03   6.94293700E-28
  -5.88000007E-03  -8.55625915E-29
  -5.86500019E-03  -8.99503173E-28
  -5.84999984E-03  -1.72733768E-27
  -5.83499996E-03  -2.54759163E-27
  -5.82000008E-03  -3.33804682E-27
  -5.80500020E-03  -4.07632818E-27
  -5.78999985E-03  -4.74052171E-27
  -5.77499997E-03  -5.30980388E-27
  -5.76000009E-03  -5.76507099E-27
  -5.74500021E-03  -6.08954705E-27
  -5.72999986E-03  -6.26935225E-27
  -5.71499998E-03  -6.29401378E-27
  -5.70000010E-03  -6.15690336E-27
  -5.68500021E-03  -5.85558546E-27
  -5.66999987E-03  -5.39205804E-27
  -5.65499999E-03  -4.77288119E-27
  -5.64000010E-03  -4.00917871E-27
  -5.62500022E-03  -3.11650960E-27
  -5.60999988E-03  -2.11460733E-27
  -5.59500000E-03  -1.02698722E-27
  -5.58000011E-03   1.19572889E-28
  -5.56500023E-03   1.29566821E-27
  -5.54999989E-03   2.47000631E-27
  -5.53500000E-03   3.61023195E-27
  -5.52000012E-03   4.68382234E-27
  -5.50499978E-03   5.65901966E-27
  -5.48999989E-03   6.50578981E-27
  -5.47500001E-03   7.19676032E-27
  -5.46000013E-03   7.70813247E-27
  -5.44499978E-03   8.02051522E-27
  -5.42999990E-03   8.11967057E-27
  -5.41500002E-03   7.99713443E-27
  -5.40000014E-03   7.65069199E-27
  -5.38499979E-03   7.08468121E-27
  -5.36999991E-03   6.31011648E-27
  -5.35500003E-03   5.34460928E-27
  -5.34000015E-03   4.21208583E-27
  -5.32499980E-03   2.94229961E-27
  -5.30999992E-03   1.57014193E-27
  -5.29500004E-03   1.34761435E-28
  -5.28000016E-03  -1.32148550E-27
  -5.26499981E-03  -2.75423178E-27
  -5.24999993E-03  -4.11841322E-27
  -5.23500005E-03  -5.36966486E-27
  -5.22000017E-03  -6.46575435E-27
  -5.20499982E-03  -7.36801709E-27
  -5.18999994E-03  -8.04274277E-27
  -5.17500006E-03  -8.46246145E-27
  -5.16000018E-03  -8.60709879E-27
  -5.14499983E-03  -8.46493974E-27
  -5.12999995E-03  -8.03336888E-27
  -5.11500007E-03  -7.31935115E-27
  -5.10000018E-03  -6.33962289E-27
  -5.08499984E-03  -5.12057202E-27
  -5.06999996E-03  -3.69779512E-27
  -5.05500007E-03  -2.11532878E-27
  -5.04000019E-03  -4.24563745E-28
  -5.02499985E-03   1.31714012E-27
  -5.00999996E-03   3.04810962E-27
  -4.99500008E-03   4.70424336E-27
  -4.98000020E-03   6.22107882E-27
  -4.96499985E-03   7.53598052E-27
  -4.94999997E-03   8.59038634E-27
  -4.93500009E-03   9.33203962E-27
  -4.92000021E-03   9.71713702E-27
  -4.90499986E-03   9.71230216E-27
  -4.88999998E-03   9.29633288E-27
  -4.87500010E-03   8.46163022E-27
  -4.86000022E-03   7.21525002E-27
  -4.84499987E-03   5.57953037E-27
  -4.82999999E-03   3.59223144E-27
  -4.81500011E-03   1.30616973E-27
  -4.80000023E-03  -1.21167899E-27
  -4.78499988E-03  -3.88161050E-27
  -4.77000000E-03  -6.61313421E-27
  -4.75500012E-03  -9.30740466E-27
  -4.73999977E-03  -1.18600792E-26
  -4.72499989E-03  -1.41645414E-26
  -4.71000001E-03  -1.61154052E-26
  -4.69500013E-03  -1.76122041E-26
  -4.67999978E-03  -1.85631451E-26
  -4.66499990E-03  -1.88888152E-26
  -4.65000002E-03  -1.85257358E-26
  -4.63500014E-03  -1.74295874E-26
  -4.61999979E-03  -1.55780400E-26
  -4.60499991E-03  -1.29730240E-26
  -4.59000003E-03  -9.64237242E-27
  -4.57500014E-03  -5.64069713E-27
  -4.55999980E-03  -1.04947052E-27
  -4.54499992E-03   4.02377610E-27
  -4.53000003E-03   9.44715091E-27
  -4.51500015E-03   1.50670014E-26
  -4.49999981E-03   2.07113859E-26
  -4.48499992E-03   2.61943698E-26
  -4.47000004E-03   3.13210505E-26
  -4.45500016E-03   3.58931989E-26
  -4.43999982E-03   3.97153902E-26
  -4.42499993E-03   4.26014286E-26
  -4.41000005E-03   4.43809201E-26
  -4.39500017E-03   4.49057776E-26
  -4.37999982E-03   4.40564394E-26
  -4.36499994E-03   4.17475945E-26
  -4.35000006E-03   3.79332394E-26
  -4.33500018E-03   3.26107949E-26
  -4.31999983E-03   2.58241799E-26
  -4.30499995E-03   1.76656263E-26
  -4.29000007E-03   8.27612079E-27
  -4.27500019E-03  -2.15561654E-27
  -4.25999984E-03  -1.33956794E-26
  -4.24499996E-03  -2.51690679E-26
  -4.23000008E-03  -3.71652710E-26
  -4.21500020E-03  -4.90452728E-26
  -4.19999985E-03  -6.04498812E-26
  -4.18499997E-03  -7.10091295E-26
  -4.17000009E-03  -8.03525706E-26
  -4.15500021E-03  -8.81202682E-26
  -4.13999986E-03  -9.39740476E-26
  -4.12499998E-03  -9.76088290E-26
  -4.11000010E-03  -9.87635981E-26
  -4.09500021E-03  -9.72317658E-26
  -4.07999987E-03  -9.28704620E-26
  -4.06499999E-03  -8.56085536E-26
  -4.05000011E-03  -7.54529432E-26
  -4.03500022E-03  -6.24930247E-26
  -4.01999988E-03  -4.69029177E-26
  -4.00500000E-03  -2.89414146E-26
  -3.99000011E-03  -8.94942975E-27
  -3.97500023E-03   1.26550137E-26
  -3.95999989E-03   3.53843128E-26
  -3.94500000E-03   5.86911774E-26
  -3.93000012E-03   8.19807610E-26
  -3.91499978E-03   1.04624761E-25
  -3.89999989E-03   1.25977179E-25
  -3.88500001E-03   1.45391342E-25
  -3.86999990E-03   1.62237799E-25
  -3.85500002E-03   1.75922601E-25
  -3.83999990E-03   1.85905438E-25
  -3.82500002E-03   1.91717051E-25
  -3.80999991E-03   1.92975530E-25
  -3.79500003E-03   1.89400869E-25
  -3.77999991E-03   1.80827282E-25
  -3.76500003E-03   1.67212923E-25
  -3.74999992E-03   1.48646589E-25
  -3.73500003E-03   1.25350972E-25
  -3.71999992E-03   9.76823718E-26
  -3.70500004E-03   6.61268077E-26
  -3.68999992E-03   3.12922571E-26
  -3.67500004E-03  -6.10270924E-27
  -3.65999993E-03  -4.52437521E-26
  -3.64500005E-03  -8.52387689E-26
  -3.62999993E-03  -1.25138657E-25
  -3.61500005E-03  -1.63960351E-25
  -3.59999994E-03  -2.00711593E-25
  -3.58500006E-03  -2.34416674E-25
  -3.56999994E-03  -2.64142580E-25
  -3.55500006E-03  -2.89024707E-25
  -3.53999995E-03  -3.08291575E-25
  -3.52500007E-03  -3.21287417E-25
  -3.50999995E-03  -3.27492499E-25
  -3.49500007E-03  -3.26540097E-25
  -3.47999996E-03  -3.18229595E-25
  -3.46500007E-03  -3.02535577E-25
  -3.44999996E-03  -2.79612142E-25
  -3.43500008E-03  -2.49792510E-25
  -3.41999996E-03  -2.13583523E-25
  -3.40500008E-03  -1.71655443E-25
  -3.38999997E-03  -1.24827032E-25
  -3.37500009E-03  -7.40463303E-26
  -3.35999997E-03  -2.03675011E-26
  -3.34500009E-03   3.50754059E-26
  -3.32999998E-03   9.10973060E-26
  -3.31500010E-03   1.46492579E-25
  -3.29999998E-03   2.00066268E-25
  -3.28500010E-03   2.50665310E-25
  -3.26999999E-03   2.97208622E-25
  -3.25500011E-03   3.38715031E-25
  -3.23999999E-03   3.74328650E-25
  -3.22500011E-03   4.03340267E-25
  -3.21000000E-03   4.25204410E-25
  -3.19500011E-03   4.39551472E-25
  -3.18000000E-03   4.46194519E-25
  -3.16499989E-03   4.45130296E-25
  -3.15000000E-03   4.36534523E-25
  -3.13499989E-03   4.20751733E-25
  -3.12000001E-03   3.98279650E-25
  -3.10499989E-03   3.69748721E-25
  -3.09000001E-03   3.35897738E-25
  -3.07499990E-03   2.97545909E-25
  -3.06000002E-03   2.55562633E-25
  -3.04499990E-03   2.10835995E-25
  -3.03000002E-03   1.64241149E-25
  -3.01499991E-03   1.16609629E-25
  -3.00000003E-03   6.87009410E-26
  -2.98499991E-03   2.11773362E-26
  -2.97000003E-03  -2.54169135E-26
  -2.95499992E-03  -7.06711088E-26
  -2.94000003E-03  -1.14317569E-25
  -2.92499992E-03  -1.56234568E-25
  -2.91000004E-03  -1.96442315E-25
  -2.89499993E-03  -2.35092062E-25
  -2.88000004E-03  -2.72448102E-25
  -2.86499993E-03  -3.08863573E-25
  -2.85000005E-03  -3.44750507E-25
  -2.83499993E-03  -3.80545022E-25
  -2.82000005E-03  -4.16668935E-25
  -2.80499994E-03  -4.53489215E-25
  -2.79000006E-03  -4.91276737E-25
  -2.77499994E-03  -5.30165706E-25
  -2.76000006E-03  -5.70116334E-25
  -2.74499995E-03  -6.10881214E-25
  -2.73000007E-03  -6.51978550E-25
  -2.71499995E-03  -6.92672334E-25
  -2.70000007E-03  -7.31961946E-25
  -2.68499996E-03  -7.68582151E-25
  -2.67000007E-03  -8.01013702E-25
  -2.65499996E-03  -8.27506313E-25
  -2.64000008E-03  -8.46112978E-25
  -2.62499996E-03  -8.54736313E-25
  -2.61000008E-03  -8.51185749E-25
  -2.59499997E-03  -8.33245178E-25
  -2.58000009E-03  -7.98749079E-25
  -2.56499997E-03  -7.45664854E-25
  -2.55000009E-03  -6.72180883E-25
  -2.53499998E-03  -5.76795865E-25
  -2.52000010E-03  -4.58407565E-25
  -2.50499998E-03  -3.16398501E-25
  -2.49000010E-03  -1.50714625E-25
  -2.47499999E-03   3.80655061E-26
  -2.46000011E-03   2.48674053E-25
  -2.44499999E-03   4.79112649E-25
  -2.43000011E-03   7.26628753E-25
  -2.41500000E-03   9.87712426E-25
  -2.40000011E-03   1.25811403E-24
  -2.38500000E-03   1.53288542E-24
  -2.36999989E-03   1.80644355E-24
  -2.35500000E-03   2.07265847E-24
  -2.33999989E-03   2.32496281E-24
  -2.32500001E-03   2.55648264E-24
  -2.30999989E-03   2.76018703E-24
  -2.29500001E-03   2.92905297E-24
  -2.27999990E-03   3.05624476E-24
  -2.26500002E-03   3.13529907E-24
  -2.24999990E-03   3.16031641E-24
  -2.23500002E-03   3.12615006E-24
  -2.21999991E-03   3.02859065E-24
  -2.20500003E-03   2.86453716E-24
  -2.18999991E-03   2.63215412E-24
  -2.17500003E-03   2.33100509E-24
  -2.15999992E-03   1.96216075E-24