  -1.49999997E-02   0.00000000    
  -1.49849998E-02   0.00000000    
  -1.49699999E-02   0.00000000    
  -1.49550000E-02   0.00000000    
  -1.49400001E-02   0.00000000    
  -1.49250003E-02   0.00000000    
  -1.49100004E-02   0.00000000    
  -1.48949996E-02   0.00000000    
  -1.48799997E-02   0.00000000    
  -1.48649998E-02   0.00000000    
  -1.48499999E-02   0.00000000    
  -1.48350000E-02   0.00000000    
  -1.48200002E-02   0.00000000    
  -1.48050003E-02   0.00000000    
  -1.47900004E-02   0.00000000    
  -1.47749996E-02   0.00000000    
  -1.47599997E-02   0.00000000    
  -1.47449998E-02   0.00000000    
  -1.47299999E-02   0.00000000    
  -1.47150001E-02   0.00000000    
  -1.47000002E-02   0.00000000    
  -1.46850003E-02   0.00000000    
  -1.46700004E-02   0.00000000    
  -1.46549996E-02   0.00000000    
  -1.46399997E-02   0.00000000    
  -1.46249998E-02   0.00000000    
  -1.46100000E-02   0.00000000    
  -1.45950001E-02   0.00000000    
  -1.45800002E-02   0.00000000    
  -1.45650003E-02   0.00000000    
  -1.45500004E-02   0.00000000    
  -1.45349996E-02   0.00000000    
  -1.45199997E-02   0.00000000    
  -1.45049999E-02   0.00000000    
  -1.44900000E-02   0.00000000    
  -1.44750001E-02   0.00000000    
  -1.44600002E-02   0.00000000    
  -1.44450003E-02   0.00000000    
  -1.44300004E-02   0.00000000    
  -1.44149996E-02   0.00000000    
  -1.43999998E-02   0.00000000    
  -1.43849999E-02   0.00000000    
  -1.43700000E-02   0.00000000    
  -1.43550001E-02   0.00000000    
  -1.43400002E-02   0.00000000    
  -1.43250003E-02   0.00000000    
  -1.43100005E-02   0.00000000    
  -1.42949997E-02   0.00000000    
  -1.42799998E-02   0.00000000    
  -1.42649999E-02   0.00000000    
  -1.42500000E-02   0.00000000    
  -1.42350001E-02   0.00000000    
  -1.42200002E-02   0.00000000    
  -1.42050004E-02   0.00000000    
  -1.41899996E-02   0.00000000    
  -1.41749997E-02   0.00000000    
  -1.41599998E-02   0.00000000    
  -1.41449999E-02   0.00000000    
  -1.41300000E-02   0.00000000    
  -1.41150001E-02   0.00000000    
  -1.41000003E-02   0.00000000    
  -1.40850004E-02   0.00000000    
  -1.40699996E-02   0.00000000    
  -1.40549997E-02   0.00000000    
  -1.40399998E-02   0.00000000    
  -1.40249999E-02   0.00000000    
  -1.40100000E-02   0.00000000    
  -1.39950002E-02   0.00000000    
  -1.39800003E-02   0.00000000    
  -1.39650004E-02   0.00000000    
  -1.39499996E-02   0.00000000    
  -1.39349997E-02   0.00000000    
  -1.39199998E-02   0.00000000    
  -1.39049999E-02   0.00000000    
  -1.38900001E-02   0.00000000    
  -1.38750002E-02   0.00000000    
  -1.38600003E-02   0.00000000    
  -1.38450004E-02   0.00000000    
  -1.38299996E-02   0.00000000    
  -1.38149997E-02   0.00000000    
  -1.37999998E-02   0.00000000    
  -1.37850000E-02   0.00000000    
  -1.37700001E-02   0.00000000    
  -1.37550002E-02   0.00000000    
  -1.37400003E-02   0.00000000    
  -1.37250004E-02   0.00000000    
  -1.37099996E-02   0.00000000    
  -1.36949997E-02   0.00000000    
  -1.36799999E-02   0.00000000    
  -1.36650000E-02   0.00000000    
  -1.36500001E-02   0.00000000    
  -1.36350002E-02   0.00000000    
  -1.36200003E-02   0.00000000    
  -1.36050005E-02   0.00000000    
  -1.35899996E-02   0.00000000    
  -1.35749998E-02   0.00000000    
  -1.35599999E-02   0.00000000    
  -1.35450000E-02   0.00000000    
  -1.35300001E-02   0.00000000    
  -1.35150002E-02   0.00000000    
  -1.35000004E-02   0.00000000    
  -1.34849995E-02   0.00000000    
  -1.34699997E-02   0.00000000    
  -1.34549998E-02   0.00000000    
  -1.34399999E-02   0.00000000    
  -1.34250000E-02   0.00000000    
  -1.34100001E-02   0.00000000    
  -1.33950002E-02   0.00000000    
  -1.33800004E-02   0.00000000    
  -1.33649996E-02   0.00000000    
  -1.33499997E-02   0.00000000    
  -1.33349998E-02   0.00000000    
  -1.33199999E-02   0.00000000    
  -1.33050000E-02   0.00000000    
  -1.32900001E-02   0.00000000    
  -1.32750003E-02   0.00000000    
  -1.32600004E-02   0.00000000    
  -1.32449996E-02   0.00000000    
  -1.32299997E-02   0.00000000    
  -1.32149998E-02   0.00000000    
  -1.31999999E-02   0.00000000    
  -1.31850000E-02   0.00000000    
  -1.31700002E-02   0.00000000    
  -1.31550003E-02   0.00000000    
  -1.31400004E-02   0.00000000    
  -1.31249996E-02   0.00000000    
  -1.31099997E-02   0.00000000    
  -1.30949998E-02   0.00000000    
  -1.30799999E-02   0.00000000    
  -1.30650001E-02   0.00000000    
  -1.30500002E-02   0.00000000    
  -1.30350003E-02   0.00000000    
  -1.30200004E-02   0.00000000    
  -1.30049996E-02   0.00000000    
  -1.29899997E-02   0.00000000    
  -1.29749998E-02   0.00000000    
  -1.29600000E-02   0.00000000    
  -1.29450001E-02   0.00000000    
  -1.29300002E-02   0.00000000    
  -1.29150003E-02   0.00000000    
  -1.29000004E-02   0.00000000    
  -1.28849996E-02   0.00000000    
  -1.28699997E-02   0.00000000    
  -1.28549999E-02   0.00000000    
  -1.28400000E-02   0.00000000    
  -1.28250001E-02   0.00000000    
  -1.28100002E-02   0.00000000    
  -1.27950003E-02   0.00000000    
  -1.27800005E-02   0.00000000    
  -1.27649996E-02   0.00000000    
  -1.27499998E-02   0.00000000    
  -1.27349999E-02   0.00000000    
  -1.27200000E-02   0.00000000    
  -1.27050001E-02   0.00000000    
  -1.26900002E-02   0.00000000    
  -1.26750004E-02   0.00000000    
  -1.26599995E-02   0.00000000    
  -1.26449997E-02   0.00000000    
  -1.26299998E-02   0.00000000    
  -1.26149999E-02   0.00000000    
  -1.26000000E-02   0.00000000    
  -1.25850001E-02   0.00000000    
  -1.25700003E-02   0.00000000    
  -1.25550004E-02   0.00000000    
  -1.25399996E-02   0.00000000    
  -1.25249997E-02   0.00000000    
  -1.25099998E-02   0.00000000    
  -1.24949999E-02   0.00000000    
  -1.24800000E-02   0.00000000    
  -1.24650002E-02   0.00000000    
  -1.24500003E-02   0.00000000    
  -1.24350004E-02   0.00000000    
  -1.24199996E-02   0.00000000    
  -1.24049997E-02   0.00000000    
  -1.23899998E-02   0.00000000    
  -1.23749999E-02   0.00000000    
  -1.23600001E-02   0.00000000    
  -1.23450002E-02   0.00000000    
  -1.23300003E-02   0.00000000    
  -1.23150004E-02   0.00000000    
  -1.22999996E-02   0.00000000    
  -1.22849997E-02   0.00000000    
  -1.22699998E-02   0.00000000    
  -1.22550000E-02   0.00000000    
  -1.22400001E-02   0.00000000    
  -1.22250002E-02   0.00000000    
  -1.22100003E-02   0.00000000    
  -1.21950004E-02   0.00000000    
  -1.21799996E-02   0.00000000    
  -1.21649997E-02   0.00000000    
  -1.21499998E-02   0.00000000    
  -1.21350000E-02   0.00000000    
  -1.21200001E-02   0.00000000    
  -1.21050002E-02   0.00000000    
  -1.20900003E-02   0.00000000    
  -1.20750004E-02   0.00000000    
  -1.20599996E-02   0.00000000    
  -1.20449997E-02   0.00000000    
  -1.20299999E-02   0.00000000    
  -1.20150000E-02   0.00000000    
  -1.20000001E-02   0.00000000    
  -1.19850002E-02   0.00000000    
  -1.19700003E-02   0.00000000    
  -1.19550005E-02   0.00000000    
  -1.19399996E-02   0.00000000    
  -1.19249998E-02   0.00000000    
  -1.19099999E-02   0.00000000    
  -1.18950000E-02   0.00000000    
  -1.18800001E-02   0.00000000    
  -1.18650002E-02   0.00000000    
  -1.18500004E-02   0.00000000    
  -1.18349995E-02   0.00000000    
  -1.18199997E-02   0.00000000    
  -1.18049998E-02   0.00000000    
  -1.17899999E-02   0.00000000    
  -1.17750000E-02   0.00000000    
  -1.17600001E-02   0.00000000    
  -1.17450003E-02   0.00000000    
  -1.17300004E-02   0.00000000    
  -1.17149996E-02   0.00000000    
  -1.16999997E-02   0.00000000    
  -1.16849998E-02   0.00000000    
  -1.16699999E-02   0.00000000    
  -1.16550000E-02   0.00000000    
  -1.16400002E-02   0.00000000    
  -1.16250003E-02   0.00000000    
  -1.16100004E-02   0.00000000    
  -1.15949996E-02   0.00000000    
  -1.15799997E-02   0.00000000    
  -1.15649998E-02   0.00000000    
  -1.15499999E-02   0.00000000    
  -1.15350001E-02   0.00000000    
  -1.15200002E-02   0.00000000    
  -1.15050003E-02   0.00000000    
  -1.14900004E-02   0.00000000    
  -1.14749996E-02   0.00000000    
  -1.14599997E-02   0.00000000    
  -1.14449998E-02   0.00000000    
  -1.14300000E-02   0.00000000    
  -1.14150001E-02  -2.07922438E-38
  -1.14000002E-02  -7.47263370E-38
  -1.13850003E-02  -1.53994988E-37
  -1.13700004E-02  -2.59120377E-37
  -1.13549996E-02  -3.88939469E-37
  -1.13399997E-02  -5.40238898E-37
  -1.13249999E-02  -7.01196747E-37
  -1.13100000E-02  -8.62154597E-37
  -1.12950001E-02  -1.02311245E-36
  -1.12800002E-02  -1.17196891E-36
  -1.12650003E-02  -1.28777096E-36
  -1.12500004E-02  -1.33519556E-36
  -1.12349996E-02  -1.31006689E-36
  -1.12199998E-02  -1.20716953E-36
  -1.12049999E-02  -9.70438782E-37
  -1.11900000E-02  -5.42629087E-37
  -1.11750001E-02   1.03391433E-37
  -1.11600002E-02   9.43309016E-37
  -1.11450003E-02   1.95552228E-36
  -1.11300005E-02   3.13764152E-36
  -1.11149997E-02   4.47695676E-36
  -1.10999998E-02   5.93913498E-36
  -1.10849999E-02   7.47273827E-36
  -1.10700000E-02   8.96115920E-36
  -1.10550001E-02   1.02979282E-35
  -1.10400002E-02   1.13782271E-35
  -1.10250004E-02   1.19994534E-35
  -1.10099996E-02   1.17051550E-35
  -1.09949997E-02   9.40814480E-36
  -1.09799998E-02   5.38271304E-36
  -1.09649999E-02   0.00000000    
  -1.09500000E-02  -7.43454403E-36
  -1.09350001E-02  -1.71124800E-35
  -1.09200003E-02  -2.88823439E-35
  -1.09050004E-02  -4.23019550E-35
  -1.08899996E-02  -5.71295765E-35
  -1.08749997E-02  -7.31323134E-35
  -1.08599998E-02  -8.97840347E-35
  -1.08449999E-02  -1.06582061E-34
  -1.08300000E-02  -1.23124251E-34
  -1.08150002E-02  -1.38400765E-34
  -1.08000003E-02  -1.51034850E-34
  -1.07850004E-02  -1.59450126E-34
  -1.07699996E-02  -1.61678618E-34
  -1.07549997E-02  -1.55405198E-34
  -1.07399998E-02  -1.38531849E-34
  -1.07249999E-02  -1.09848983E-34
  -1.07100001E-02  -6.84468837E-35
  -1.06950002E-02  -1.33050463E-35
  -1.06800003E-02   5.62487420E-35
  -1.06650004E-02   1.39998347E-34
  -1.06499996E-02   2.35241445E-34
  -1.06349997E-02   3.40561721E-34
  -1.06199998E-02   4.53942903E-34
  -1.06050000E-02   5.70193096E-34
  -1.05900001E-02   6.83708886E-34
  -1.05750002E-02   7.86249600E-34
  -1.05600003E-02   8.62228321E-34
  -1.05450004E-02   8.95153366E-34
  -1.05299996E-02   8.73107888E-34
  -1.05149997E-02   7.84853884E-34
  -1.04999999E-02   6.21782237E-34
  -1.04850000E-02   3.84084147E-34
  -1.04700001E-02   7.24109686E-35
  -1.04550002E-02  -3.17157399E-34
  -1.04400003E-02  -7.84973730E-34
  -1.04250005E-02  -1.32065808E-33
  -1.04099996E-02  -1.90308421E-33
  -1.03949998E-02  -2.50733863E-33
  -1.03799999E-02  -3.09814944E-33
  -1.03650000E-02  -3.63070642E-33
  -1.03500001E-02  -4.05526559E-33
  -1.03350002E-02  -4.31644648E-33
  -1.03200004E-02  -4.35875987E-33
  -1.03049995E-02  -4.12840853E-33
  -1.02899997E-02  -3.57416625E-33
  -1.02749998E-02  -2.65589137E-33
  -1.02599999E-02  -1.34622067E-33
  -1.02450000E-02   3.67492319E-34
  -1.02300001E-02   2.46961408E-33
  -1.02150002E-02   4.91893803E-33
  -1.02000004E-02   7.65640686E-33
  -1.01849996E-02   1.06005030E-32
  -1.01699997E-02   1.36442054E-32
  -1.01549998E-02   1.66515108E-32
  -1.01399999E-02   1.94533324E-32
  -1.01250000E-02   2.18500199E-32
  -1.01100001E-02   2.36250531E-32
  -1.00950003E-02   2.45576551E-32
  -1.00800004E-02   2.44090212E-32
  -1.00649996E-02   2.29362090E-32
  -1.00499997E-02   1.99355863E-32
  -1.00349998E-02   1.52407883E-32
  -1.00199999E-02   8.74109060E-33
  -1.00050000E-02   3.96727507E-34
  -9.99000017E-03  -9.75022459E-33
  -9.97500028E-03  -2.15610349E-32
  -9.96000040E-03  -3.47884467E-32
  -9.94499959E-03  -4.90604146E-32
  -9.92999971E-03  -6.38818937E-32
  -9.91499983E-03  -7.86297869E-32
  -9.89999995E-03  -9.25605176E-32
  -9.88500006E-03  -1.04828717E-31
  -9.87000018E-03  -1.14507773E-31
  -9.85500030E-03  -1.20614913E-31
  -9.84000042E-03  -1.22143396E-31
  -9.82499961E-03  -1.18114225E-31
  -9.80999973E-03  -1.07634763E-31
  -9.79499985E-03  -8.99514726E-32
  -9.77999996E-03  -6.45229143E-32
  -9.76500008E-03  -3.10801559E-32
  -9.75000020E-03   1.03143047E-32
  -9.73500032E-03   5.92020685E-32
  -9.72000044E-03   1.14684132E-31
  -9.70499963E-03   1.75385944E-31
  -9.68999974E-03   2.39435175E-31
  -9.67499986E-03   3.04458303E-31
  -9.65999998E-03   3.67595515E-31
  -9.64500010E-03   4.25569768E-31
  -9.63000022E-03   4.74769473E-31
  -9.61500034E-03   5.11344133E-31
  -9.60000046E-03   5.31350906E-31
  -9.58499964E-03   5.30927117E-31
  -9.56999976E-03   5.06492116E-31
  -9.55499988E-03   4.54948428E-31
  -9.54000000E-03   3.73907215E-31
  -9.52500012E-03   2.61933220E-31
  -9.51000024E-03   1.18772043E-31
  -9.49500035E-03  -5.44421510E-32
  -9.47999954E-03  -2.55008147E-31
  -9.46499966E-03  -4.78520569E-31
  -9.44999978E-03  -7.18794671E-31
  -9.43499990E-03  -9.67860859E-31
  -9.42000002E-03  -1.21604129E-30
  -9.40500014E-03  -1.45211525E-30
  -9.39000025E-03  -1.66358594E-30
  -9.37500037E-03  -1.83706069E-30
  -9.35999956E-03  -1.95872041E-30
  -9.34499968E-03  -2.01487838E-30
  -9.32999980E-03  -1.99262825E-30
  -9.31499992E-03  -1.88056150E-30
  -9.30000003E-03  -1.66952359E-30
  -9.28500015E-03  -1.35337542E-30
  -9.27000027E-03  -9.29732807E-31
  -9.25500039E-03  -4.00648865E-31
  -9.23999958E-03   2.26801902E-31
  -9.22499970E-03   9.40086279E-31
  -9.20999981E-03   1.72096116E-30
  -9.19499993E-03   2.54544913E-30
  -9.18000005E-03   3.38407483E-30
  -9.16500017E-03   4.20238817E-30
  -9.15000029E-03   4.96179438E-30
  -9.13500041E-03   5.62070279E-30
  -9.11999959E-03   6.13597707E-30
  -9.10499971E-03   6.46465996E-30
  -9.08999983E-03   6.56593604E-30
  -9.07499995E-03   6.40327395E-30
  -9.06000007E-03   5.94667320E-30
  -9.04500019E-03   5.17493238E-30
  -9.03000031E-03   4.07783279E-30
  -9.01500043E-03   2.65812074E-30
  -8.99999961E-03   9.33163087E-31
  -8.98499973E-03  -1.06384129E-30
  -8.96999985E-03  -3.28320838E-30
  -8.95499997E-03  -5.65877902E-30
  -8.94000009E-03  -8.10868341E-30
  -8.92500021E-03  -1.05369455E-29
  -8.91000032E-03  -1.28359469E-29
  -8.89500044E-03  -1.48897481E-29
  -8.87999963E-03  -1.65782395E-29
  -8.86499975E-03  -1.77820194E-29
  -8.84999987E-03  -1.83878839E-29
  -8.83499999E-03  -1.82947471E-29
  -8.82000010E-03  -1.74197655E-29
  -8.80500022E-03  -1.57044195E-29
  -8.79000034E-03  -1.31202383E-29
  -8.77500046E-03  -9.67386862E-30
  -8.75999965E-03  -5.41115822E-30
  -8.74499977E-03  -4.19943194E-31
  -8.72999988E-03   5.16876753E-30
  -8.71500000E-03   1.11814678E-29
  -8.70000012E-03   1.74049028E-29
  -8.68500024E-03   2.35910093E-29
  -8.67000036E-03   2.94641011E-29
  -8.65499955E-03   3.47302315E-29
  -8.63999967E-03   3.90885748E-29
  -8.62499978E-03   4.22445240E-29
  -8.60999990E-03   4.39241095E-29
  -8.59500002E-03   4.38891960E-29
  -8.58000014E-03   4.19528449E-29
  -8.56500026E-03   3.79941080E-29
  -8.55000038E-03   3.19714963E-29
  -8.53499956E-03   2.39342898E-29
  -8.51999968E-03   1.40308721E-29
  -8.50499980E-03   2.51334384E-30
  -8.48999992E-03  -1.02622936E-29
  -8.47500004E-03  -2.38409303E-29
  -8.46000016E-03  -3.76785022E-29
  -8.44500028E-03  -5.11576706E-29
  -8.43000039E-03  -6.36089582E-29
  -8.41499958E-03  -7.43369958E-29
  -8.39999970E-03  -8.26511873E-29
  -8.38499982E-03  -8.78998880E-29
  -8.36999994E-03  -8.95068479E-29
  -8.35500006E-03  -8.70083991E-29
  -8.34000017E-03  -8.00896583E-29
  -8.32500029E-03  -6.86178265E-29
  -8.31000041E-03  -5.26706210E-29
  -8.29499960E-03  -3.25578036E-29
  -8.27999972E-03  -8.83384945E-30
  -8.26499984E-03   1.76999326E-29
  -8.24999996E-03   4.60052844E-29
  -8.23500007E-03   7.48299256E-29
  -8.22000019E-03   1.02744077E-28
  -8.20500031E-03   1.28190318E-28
  -8.19000043E-03   1.49546354E-28
  -8.17499962E-03   1.65198796E-28
  -8.15999974E-03   1.73626051E-28
  -8.14499985E-03   1.73487264E-28
  -8.12999997E-03   1.63713651E-28
  -8.11500009E-03   1.43598023E-28
  -8.10000021E-03   1.12877875E-28
  -8.08500033E-03   7.18071244E-29
  -8.07000045E-03   2.12114100E-29
  -8.05499963E-03  -3.74778986E-29
  -8.03999975E-03  -1.02215373E-28
  -8.02499987E-03  -1.70362635E-28
  -8.00999999E-03  -2.38741743E-28
  -7.99500011E-03  -3.03722523E-28
  -7.98000023E-03  -3.61343747E-28
  -7.96500035E-03  -4.07466976E-28
  -7.95000046E-03  -4.37959743E-28
  -7.93499965E-03  -4.48902781E-28
  -7.91999977E-03  -4.36814730E-28
  -7.90499989E-03  -3.98885442E-28
  -7.89000001E-03  -3.33207860E-28
  -7.87500013E-03  -2.38997241E-28
  -7.86000025E-03  -1.16785118E-28
  -7.84500036E-03   3.14242373E-29
  -7.82999955E-03   2.02047385E-28
  -7.81499967E-03   3.89876880E-28
  -7.79999979E-03   5.88108420E-28
  -7.78499991E-03   7.88447601E-28
  -7.77000003E-03   9.81302329E-28
  -7.75500014E-03   1.15606198E-27
  -7.73999980E-03   1.30146228E-27
  -7.72499992E-03   1.40602949E-27
  -7.71000003E-03   1.45859332E-27
  -7.69500015E-03   1.44885360E-27
  -7.67999981E-03   1.36798159E-27
  -7.66499992E-03   1.20923180E-27
  -7.65000004E-03   9.68538228E-28
  -7.63500016E-03   6.45064813E-28
  -7.61999981E-03   2.41679604E-28
  -7.60499993E-03  -2.34678704E-28
  -7.59000005E-03  -7.72772842E-28
  -7.57500017E-03  -1.35700446E-27
  -7.55999982E-03  -1.96754120E-27
  -7.54499994E-03  -2.58065137E-27
  -7.53000006E-03  -3.16925601E-27
  -7.51500018E-03  -3.70370156E-27
  -7.49999983E-03  -4.15274484E-27
  -7.48499995E-03  -4.48473395E-27
  -7.47000007E-03  -4.66895339E-27
  -7.45500019E-03  -4.67709699E-27
  -7.43999984E-03  -4.48481638E-27
  -7.42499996E-03  -4.07328829E-27
  -7.41000008E-03  -3.43073181E-27
  -7.39500020E-03  -2.55380294E-27
  -7.37999985E-03  -1.44879332E-27
  -7.36499997E-03  -1.32555643E-28
  -7.35000009E-03   1.36691684E-27
  -7.33500021E-03   3.01032133E-27
  -7.31999986E-03   4.74734220E-27
  -7.30499998E-03   6.51745478E-27
  -7.29000010E-03   8.25125935E-27
  -7.27500021E-03   9.87235002E-27
  -7.25999987E-03   1.12996991E-26
  -7.24499999E-03   1.24505108E-26
  -7.23000010E-03   1.32434801E-26
  -7.21500022E-03   1.36023594E-26
  -7.19999988E-03   1.34597173E-26
  -7.18499999E-03   1.27607534E-26
  -7.17000011E-03   1.14670108E-26
  -7.15500023E-03   9.55982012E-27
  -7.13999989E-03   7.04330607E-27
  -7.12500000E-03   3.94677511E-27
  -7.11000012E-03   3.26318592E-28
  -7.09499978E-03  -3.73451067E-27
  -7.07999989E-03  -8.12508166E-27
  -7.06500001E-03  -1.27092240E-26
  -7.05000013E-03  -1.73279800E-26
  -7.03499978E-03  -2.18035746E-26
  -7.01999990E-03  -2.59445751E-26
  -7.00500002E-03  -2.95521408E-26
  -6.99000014E-03  -3.24272245E-26
  -6.97499979E-03  -3.43785213E-26
  -6.95999991E-03  -3.52309101E-26
  -6.94500003E-03  -3.48340977E-26
  -6.93000015E-03  -3.30711322E-26
  -6.91499980E-03  -2.98664218E-26
  -6.89999992E-03  -2.51928816E-26
  -6.88500004E-03  -1.90778445E-26
  -6.87000016E-03  -1.16073672E-26
  -6.85499981E-03  -2.92860413E-27
  -6.83999993E-03   6.75002700E-27
  -6.82500005E-03   1.71610928E-26
  -6.81000017E-03   2.79829640E-26
  -6.79499982E-03   3.88472272E-26
  -6.77999994E-03   4.93486330E-26
  -6.76500006E-03   5.90574122E-26
  -6.75000018E-03   6.75336980E-26
  -6.73499983E-03   7.43436445E-26
  -6.71999995E-03   7.90767422E-26
  -6.70500007E-03   8.13637486E-26
  -6.69000018E-03   8.08946167E-26
  -6.67499984E-03   7.74356218E-26
  -6.65999996E-03   7.08450033E-26
  -6.64500007E-03   6.10863748E-26
  -6.63000019E-03   4.82391279E-26
  -6.61499985E-03   3.25052293E-26
  -6.59999996E-03   1.42118099E-26
  -6.58500008E-03  -6.19087947E-27
  -6.57000020E-03  -2.81364529E-26
  -6.55499985E-03  -5.09544364E-26
  -6.53999997E-03  -7.38872639E-26
  -6.52500009E-03  -9.61119962E-26
  -6.51000021E-03  -1.16766230E-25
  -6.49499986E-03  -1.34977478E-25
  -6.47999998E-03  -1.49895269E-25
  -6.46500010E-03  -1.60724690E-25
  -6.45000022E-03  -1.66760314E-25
  -6.43499987E-03  -1.67419235E-25
  -6.41999999E-03  -1.62271770E-25
  -6.40500011E-03  -1.51068466E-25
  -6.39000023E-03  -1.33762152E-25
  -6.37499988E-03  -1.10523862E-25
  -6.36000000E-03  -8.17515045E-26
  -6.34500012E-03  -4.80705489E-26
  -6.32999977E-03  -1.03260521E-26
  -6.31499989E-03   3.04340411E-26
  -6.30000001E-03   7.29844002E-26
  -6.28500013E-03   1.15956070E-25
  -6.26999978E-03   1.57877740E-25
  -6.25499990E-03   1.97223374E-25
  -6.24000002E-03   2.32464712E-25
  -6.22500014E-03   2.62126917E-25
  -6.20999979E-03   2.84845372E-25
  -6.19499991E-03   2.99421524E-25
  -6.18000003E-03   3.04875635E-25
  -6.16500014E-03   3.00494055E-25
  -6.14999980E-03   2.85869091E-25
  -6.13499992E-03   2.60929500E-25
  -6.12000003E-03   2.25959986E-25
  -6.10500015E-03   1.81608353E-25
  -6.08999981E-03   1.28879546E-25
  -6.07499992E-03   6.91162454E-26
  -6.06000004E-03   3.96601669E-27
  -6.04500016E-03  -6.46641240E-26
  -6.02999981E-03  -1.34664572E-25
  -6.01499993E-03  -2.03789642E-25
  -6.00000005E-03  -2.69731659E-25
  -5.98500017E-03  -3.30199771E-25
  -5.96999982E-03  -3.83001017E-25
  -5.95499994E-03  -4.26120326E-25
  -5.94000006E-03  -4.57796247E-25
  -5.92500018E-03  -4.76589675E-25
  -5.90999983E-03  -4.81442747E-25
  -5.89499995E-03  -4.71724967E-25
  -5.88000007E-03  -4.47264855E-25
  -5.86500019E-03  -4.08365754E-25
  -5.84999984E-03  -3.55804470E-25
  -5.83499996E-03  -2.90812710E-25
  -5.82000008E-03  -2.15042028E-25
  -5.80500020E-03  -1.30513253E-25
  -5.78999985E-03  -3.95522255E-26
  -5.77499997E-03   5.52855416E-26
  -5.76000009E-03   1.51298431E-25
  -5.74500021E-03   2.45727189E-25
  -5.72999986E-03   3.35844785E-25
  -5.71499998E-03   4.19043998E-25
  -5.70000010E-03   4.92919244E-25
  -5.68500021E-03   5.55339588E-25
  -5.66999987E-03   6.04509979E-25
  -5.65499999E-03   6.39018453E-25
  -5.64000010E-03   6.57867988E-25
  -5.62500022E-03   6.60492035E-25
  -5.60999988E-03   6.46753875E-25
  -5.59500000E-03   6.16930544E-25
  -5.58000011E-03   5.71682962E-25
  -5.56500023E-03   5.12014608E-25
  -5.54999989E-03   4.39221432E-25
  -5.53500000E-03   3.54836464E-25
  -5.52000012E-03   2.60572541E-25
  -5.50499978E-03   1.58266378E-25
  -5.48999989E-03   4.98274438E-26
  -5.47500001E-03  -6.28054753E-26
  -5.46000013E-03  -1.77697871E-25
  -5.44499978E-03  -2.92941722E-25
  -5.42999990E-03  -4.06665759E-25
  -5.41500002E-03  -5.17034278E-25
  -5.40000014E-03  -6.22235683E-25
  -5.38499979E-03  -7.20463312E-25
  -5.36999991E-03  -8.09891592E-25
  -5.35500003E-03  -8.88651415E-25
  -5.34000015E-03  -9.54809630E-25
  -5.32499980E-03  -1.00635627E-24
  -5.30999992E-03  -1.04120489E-24
  -5.29500004E-03  -1.05720959E-24
  -5.28000016E-03  -1.05220259E-24
  -5.26499981E-03  -1.02405406E-24
  -5.24999993E-03  -9.70755664E-25
  -5.23500005E-03  -8.90527031E-25
  -5.22000017E-03  -7.81942644E-25
  -5.20499982E-03  -6.44075643E-25
  -5.18999994E-03  -4.76652291E-25
  -5.17500006E-03  -2.80209557E-25
  -5.16000018E-03  -5.62472370E-26
  -5.14499983E-03   1.92635630E-25
  -5.12999995E-03   4.62630337E-25
  -5.11500007E-03   7.48645023E-25
  -5.10000018E-03   1.04427789E-24
  -5.08499984E-03   1.34184688E-24
  -5.06999996E-03   1.63248276E-24
  -5.05500007E-03   1.90629125E-24
  -5.04000019E-03   2.15258585E-24
  -5.02499985E-03   2.36019117E-24
  -5.00999996E-03   2.51781208E-24
  -4.99500008E-03   2.61445997E-24
  -4.98000020E-03   2.63992460E-24
  -4.96499985E-03   2.58527547E-24
  -4.94999997E-03   2.44337458E-24
  -4.93500009E-03   2.20937773E-24
  -4.92000021E-03   1.88120193E-24
  -4.90499986E-03   1.45993502E-24
  -4.88999998E-03   9.50161168E-25
  -4.87500010E-03   3.60180306E-25
  -4.86000022E-03  -2.97899516E-25
  -4.84499987E-03  -1.00821433E-24
  -4.82999999E-03  -1.75135404E-24
  -4.81500011E-03  -2.50473770E-24
  -4.80000023E-03  -3.24315273E-24
  -4.78499988E-03  -3.93945461E-24
  -4.77000000E-03  -4.56541179E-24
  -4.75500012E-03  -5.09267380E-24
  -4.73999977E-03  -5.49383639E-24
  -4.72499989E-03  -5.74356767E-24
  -4.71000001E-03  -5.81975506E-24
  -4.69500013E-03  -5.70462910E-24
  -4.67999978E-03  -5.38581530E-24
  -4.66499990E-03  -4.85726785E-24
  -4.65000002E-03  -4.12003591E-24
  -4.63500014E-03  -3.18282064E-24
  -4.61999979E-03  -2.06228297E-24
  -4.60499991E-03  -7.83069729E-25
  -4.59000003E-03   6.22463911E-25
  -4.57500014E-03   2.11484734E-24
  -4.55999980E-03   3.64840398E-24
  -4.54499992E-03   5.17246432E-24
  -4.53000003E-03   6.63285924E-24
  -4.51500015E-03   7.97365299E-24
  -4.49999981E-03   9.13906955E-24
  -4.48499992E-03   1.00755468E-23
  -4.47000004E-03   1.07338544E-23
  -4.45500016E-03   1.10711919E-23
  -4.43999982E-03   1.10531916E-23
  -4.42499993E-03   1.06557454E-23
  -4.41000005E-03   9.86656654E-24
  -4.39500017E-03   8.68641958E-24
  -4.37999982E-03   7.12995048E-24
  -4.36499994E-03   5.22605598E-24
  -4.35000006E-03   3.01775840E-24
  -4.33500018E-03   5.61553988E-25
  -4.31999983E-03  -2.07376524E-24
  -4.30499995E-03  -4.80880615E-24
  -4.29000007E-03  -7.55575314E-24
  -4.27500019E-03  -1.02209765E-23
  -4.25999984E-03  -1.27079978E-23
  -4.24499996E-03  -1.49207266E-23
  -4.23000008E-03  -1.67668599E-23
  -4.21500020E-03  -1.81613435E-23
  -4.19999985E-03  -1.90297500E-23
  -4.18499997E-03  -1.93114743E-23
  -4.17000009E-03  -1.89626037E-23
  -4.15500021E-03  -1.79583538E-23
  -4.13999986E-03  -1.62949601E-23
  -4.12499998E-03  -1.39909294E-23
  -4.11000010E-03  -1.10875781E-23
  -4.09500021E-03  -7.64881190E-24
  -4.07999987E-03  -3.76010314E-24
  -4.06499999E-03   4.73320487E-25
  -4.05000011E-03   4.92905537E-24
  -4.03500022E-03   9.47081396E-24
  -4.01999988E-03   1.39523446E-23
  -4.00500000E-03   1.82218791E-23
  -3.99000011E-03   2.21269694E-23
  -3.97500023E-03   2.55195730E-23
  -3.95999989E-03   2.82612196E-23
  -3.94500000E-03   3.02280833E-23
  -3.93000012E-03   3.13158121E-23
  -3.91499978E-03   3.14438916E-23
  -3.89999989E-03   3.05594239E-23
  -3.88500001E-03   2.86401631E-23
  -3.86999990E-03   2.56966549E-23
  -3.85500002E-03   2.17733877E-23
  -3.83999990E-03   1.69488848E-23
  -3.82500002E-03   1.13346817E-23
  -3.80999991E-03   5.07317986E-24
  -3.79500003E-03  -1.66559460E-24
  -3.77999991E-03  -8.68826631E-24
  -3.76500003E-03  -1.57833239E-23
  -3.74999992E-03  -2.27271332E-23
  -3.73500003E-03  -2.92905979E-23
  -3.71999992E-03  -3.52462642E-23
  -3.70500004E-03  -4.03756840E-23
  -3.68999992E-03  -4.44767762E-23
  -3.67500004E-03  -4.73709901E-23
  -3.65999993E-03  -4.89100104E-23
  -3.64500005E-03  -4.89817841E-23
  -3.62999993E-03  -4.75156514E-23
  -3.61500005E-03  -4.44863782E-23
  -3.59999994E-03  -3.99169361E-23
  -3.58500006E-03  -3.38798719E-23
  -3.56999994E-03  -2.64971846E-23
  -3.55500006E-03  -1.79386528E-23
  -3.53999995E-03  -8.41858947E-24
  -3.52500007E-03   1.80892274E-24
  -3.50999995E-03   1.24562462E-23
  -3.49500007E-03   2.32097046E-23
  -3.47999996E-03   3.37382241E-23
  -3.46500007E-03   4.37028973E-23
  -3.44999996E-03   5.27671899E-23
  -3.43500008E-03   6.06075081E-23
  -3.41999996E-03   6.69238416E-23
  -3.40500008E-03   7.14501299E-23
  -3.38999997E-03   7.39640150E-23
  -3.37500009E-03   7.42956963E-23
  -3.35999997E-03   7.23355284E-23
  -3.34500009E-03   6.80401050E-23
  -3.32999998E-03   6.14365757E-23
  -3.31500010E-03   5.26249678E-23
  -3.29999998E-03   4.17783638E-23
  -3.28500010E-03   2.91408216E-23
  -3.26999999E-03   1.50230292E-23
  -3.25500011E-03  -2.04306297E-25
  -3.23999999E-03  -1.61192193E-23
  -3.22500011E-03  -3.22592298E-23
  -3.21000000E-03  -4.81338186E-23
  -3.19500011E-03  -6.32383529E-23
  -3.18000000E-03  -7.70690851E-23
  -3.16499989E-03  -8.91387769E-23
  -3.15000000E-03  -9.89925773E-23
  -3.13499989E-03  -1.06223604E-22
  -3.12000001E-03  -1.10487745E-22
  -3.10499989E-03  -1.11517215E-22
  -3.09000001E-03  -1.09132368E-22
  -3.07499990E-03  -1.03251309E-22
  -3.06000002E-03  -9.38969145E-23
  -3.04499990E-03  -8.12009113E-23
  -3.03000002E-03  -6.54047795E-23
  -3.01499991E-03  -4.68572775E-23
  -3.00000003E-03  -2.60085153E-23
  -2.98499991E-03  -3.40057820E-24
  -2.97000003E-03   2.03451393E-23
  -2.95499992E-03   4.45436369E-23
  -2.94000003E-03   6.84647394E-23
  -2.92499992E-03   9.13537784E-23
  -2.91000004E-03   1.12453990E-22
  -2.89499993E-03   1.31029960E-22
  -2.88000004E-03   1.46391544E-22
  -2.86499993E-03   1.57917395E-22
  -2.85000005E-03   1.65077437E-22
  -2.83499993E-03   1.67453499E-22
  -2.82000005E-03   1.64757349E-22
  -2.80499994E-03   1.56845503E-22
  -2.79000006E-03   1.43730167E-22
  -2.77499994E-03   1.25585747E-22
  -2.76000006E-03   1.02750565E-22
  -2.74499995E-03   7.57236292E-23
  -2.73000007E-03   4.51560454E-23
  -2.71499995E-03   1.18374132E-23
  -2.70000007E-03  -2.33227626E-23
  -2.68499996E-03  -5.93182380E-23
  -2.67000007E-03  -9.50732197E-23
  -2.65499996E-03  -1.29472964E-22
  -2.64000008E-03  -1.61396827E-22
  -2.62499996E-03  -1.89753019E-22
  -2.61000008E-03  -2.13513875E-22
  -2.59499997E-03  -2.31750673E-22
  -2.58000009E-03  -2.43666815E-22
  -2.56499997E-03  -2.48628207E-22
  -2.55000009E-03  -2.46189857E-22
  -2.53499998E-03  -2.36117731E-22
  -2.52000010E-03  -2.18404838E-22
  -2.50499998E-03  -1.93280842E-22
  -2.49000010E-03  -1.61214707E-22
  -2.47499999E-03  -1.22909931E-22
  -2.46000011E-03  -7.92922466E-23
  -2.44499999E-03  -3.14898033E-23
  -2.43000011E-03   1.91937605E-23
  -2.41500000E-03   7.13128491E-23
  -2.40000011E-03   1.23319255E-22
  -2.38500000E-03   1.73606311E-22
  -2.36999989E-03   2.20556649E-22
  -2.35500000E-03   2.62592232E-22
  -2.33999989E-03   2.98225117E-22
  -2.32500001E-03   3.26107500E-22
  -2.30999989E-03   3.45079239E-22
  -2.29500001E-03   3.54211547E-22
  -2.27999990E-03   3.52845114E-22
  -2.26500002E-03   3.40621203E-22
  -2.24999990E-03   3.17504726E-22
  -2.23500002E-03   2.83797999E-22
  -2.21999991E-03   2.40144507E-22
  -2.20500003E-03   1.87522183E-22
  -2.18999991E-03   1.27225859E-22
  -2.17500003E-03   6.08391997E-23
  -2.15999992E-03  -9.80349317E-24