  -1.49999997E-02   0.00000000    
  -1.49849998E-02   0.00000000    
  -1.49699999E-02  -4.13626940E-15
  -1.49550000E-02  -2.04588747E-14
  -1.49400001E-02  -6.03884957E-14
  -1.49250003E-02  -1.37879440E-13
  -1.49100004E-02  -2.68326919E-13
  -1.48949996E-02  -4.67271566E-13
  -1.48799997E-02  -7.48965343E-13
  -1.48649998E-02  -1.12487320E-12
  -1.48499999E-02  -1.60218616E-12
  -1.48350000E-02  -2.18243392E-12
  -1.48200002E-02  -2.86026845E-12
  -1.48050003E-02  -3.62250464E-12
  -1.47900004E-02  -4.44747147E-12
  -1.47749996E-02  -5.30475403E-12
  -1.47599997E-02  -6.15534533E-12
  -1.47449998E-02  -6.95224173E-12
  -1.47299999E-02  -7.64150895E-12
  -1.47150001E-02  -8.16378215E-12
  -1.47000002E-02  -8.45617586E-12
  -1.46850003E-02  -8.45458252E-12
  -1.46700004E-02  -8.09624416E-12
  -1.46549996E-02  -7.32257310E-12
  -1.46399997E-02  -6.08205803E-12
  -1.46249998E-02  -4.33319439E-12
  -1.46100000E-02  -2.04734233E-12
  -1.45950001E-02   7.88681837E-13
  -1.45800002E-02   4.17033899E-12
  -1.45650003E-02   8.07351842E-12
  -1.45500004E-02   1.24532737E-11
  -1.45349996E-02   1.72431895E-11
  -1.45199997E-02   2.23554352E-11
  -1.45049999E-02   2.76815983E-11
  -1.44900000E-02   3.30942773E-11
  -1.44750001E-02   3.84494693E-11
  -1.44600002E-02   4.35896770E-11
  -1.44450003E-02   4.83477668E-11
  -1.44300004E-02   5.25513313E-11
  -1.44149996E-02   5.60276860E-11
  -1.43999998E-02   5.86091523E-11
  -1.43849999E-02   6.01385400E-11
  -1.43700000E-02   6.04747571E-11
  -1.43550001E-02   5.94982952E-11
  -1.43400002E-02   5.71162805E-11
  -1.43250003E-02   5.32672934E-11
  -1.43100005E-02   4.79252610E-11
  -1.42949997E-02   4.11027011E-11
  -1.42799998E-02   3.28530154E-11
  -1.42649999E-02   2.32715392E-11
  -1.42500000E-02   1.24956634E-11
  -1.42350001E-02   7.03452812E-13
  -1.42200002E-02  -1.18887608E-11
  -1.42050004E-02  -2.50300874E-11
  -1.41899996E-02  -3.84401400E-11
  -1.41749997E-02  -5.18150453E-11
  -1.41599998E-02  -6.48342838E-11
  -1.41449999E-02  -7.71687228E-11
  -1.41300000E-02  -8.84890147E-11
  -1.41150001E-02  -9.84743745E-11
  -1.41000003E-02  -1.06821572E-10
  -1.40850004E-02  -1.13253941E-10
  -1.40699996E-02  -1.17529847E-10
  -1.40549997E-02  -1.19450685E-10
  -1.40399998E-02  -1.18868027E-10
  -1.40249999E-02  -1.15689319E-10
  -1.40100000E-02  -1.09882992E-10
  -1.39950002E-02  -1.01481122E-10
  -1.39800003E-02  -9.05815215E-11
  -1.39650004E-02  -7.73471565E-11
  -1.39499996E-02  -6.20043669E-11
  -1.39349997E-02  -4.48390353E-11
  -1.39199998E-02  -2.61912037E-11
  -1.39049999E-02  -6.44773818E-12
  -1.38900001E-02   1.39660948E-11
  -1.38750002E-02   3.45966693E-11
  -1.38600003E-02   5.49728839E-11
  -1.38450004E-02   7.46178952E-11
  -1.38299996E-02   9.30616625E-11
  -1.38149997E-02   1.09852655E-10
  -1.37999998E-02   1.24570743E-10
  -1.37850000E-02   1.36838194E-10
  -1.37700001E-02   1.46330906E-10
  -1.37550002E-02   1.52787602E-10
  -1.37400003E-02   1.56018129E-10
  -1.37250004E-02   1.55909508E-10
  -1.37099996E-02   1.52430582E-10
  -1.36949997E-02   1.45633852E-10
  -1.36799999E-02   1.35655834E-10
  -1.36650000E-02   1.22714408E-10
  -1.36500001E-02   1.07104388E-10
  -1.36350002E-02   8.91909255E-11
  -1.36200003E-02   6.94002911E-11
  -1.36050005E-02   4.82097522E-11
  -1.35899996E-02   2.61350958E-11
  -1.35749998E-02   3.71722531E-12
  -1.35599999E-02  -1.84919736E-11
  -1.35450000E-02  -3.99446656E-11
  -1.35300001E-02  -6.01118669E-11
  -1.35150002E-02  -7.84979928E-11
  -1.35000004E-02  -9.46547285E-11
  -1.34849995E-02  -1.08193766E-10
  -1.34699997E-02  -1.18798082E-10
  -1.34549998E-02  -1.26230804E-10
  -1.34399999E-02  -1.30342945E-10
  -1.34250000E-02  -1.31077704E-10
  -1.34100001E-02  -1.28472857E-10
  -1.33950002E-02  -1.22660174E-10
  -1.33800004E-02  -1.13862315E-10
  -1.33649996E-02  -1.02387099E-10
  -1.33499997E-02  -8.86189178E-11
  -1.33349998E-02  -7.30085783E-11
  -1.33199999E-02  -5.60601843E-11
  -1.33050000E-02  -3.83171203E-11
  -1.32900001E-02  -2.03464294E-11
  -1.32750003E-02  -2.72239219E-12
  -1.32600004E-02   1.39904494E-11
  -1.32449996E-02   2.92538112E-11
  -1.32299997E-02   4.25719217E-11
  -1.32149998E-02   5.35064215E-11
  -1.31999999E-02   6.16899171E-11
  -1.31850000E-02   6.68373551E-11
  -1.31700002E-02   6.87555013E-11
  -1.31550003E-02   6.73490638E-11
  -1.31400004E-02   6.26245444E-11
  -1.31249996E-02   5.46909393E-11
  -1.31099997E-02   4.37572686E-11
  -1.30949998E-02   3.01267934E-11
  -1.30799999E-02   1.41890536E-11
  -1.30650001E-02  -3.59161182E-12
  -1.30500002E-02  -2.26894319E-11
  -1.30350003E-02  -4.25330465E-11
  -1.30200004E-02  -6.25221888E-11
  -1.30049996E-02  -8.20466195E-11
  -1.29899997E-02  -1.00504348E-10
  -1.29749998E-02  -1.17320695E-10
  -1.29600000E-02  -1.31966160E-10
  -1.29450001E-02  -1.43973805E-10
  -1.29300002E-02  -1.52953983E-10
  -1.29150003E-02  -1.58607003E-10
  -1.29000004E-02  -1.60734287E-10
  -1.28849996E-02  -1.59244479E-10
  -1.28699997E-02  -1.54157243E-10
  -1.28549999E-02  -1.45603765E-10
  -1.28400000E-02  -1.33823230E-10
  -1.28250001E-02  -1.19154700E-10
  -1.28100002E-02  -1.02027144E-10
  -1.27950003E-02  -8.29456573E-11
  -1.27800005E-02  -6.24735125E-11
  -1.27649996E-02  -4.12139593E-11
  -1.27499998E-02  -1.97885996E-11
  -1.27349999E-02   1.18497107E-12
  -1.27200000E-02   2.11168045E-11
  -1.27050001E-02   3.94651811E-11
  -1.26900002E-02   5.57612116E-11
  -1.26750004E-02   6.96268390E-11
  -1.26599995E-02   8.07936842E-11
  -1.26449997E-02   8.91164781E-11
  -1.26299998E-02   9.45850273E-11
  -1.26149999E-02   9.73303799E-11
  -1.26000000E-02   9.76268510E-11
  -1.25850001E-02   9.58894700E-11
  -1.25700003E-02   9.26656113E-11
  -1.25550004E-02   8.86218807E-11
  -1.25399996E-02   8.45278153E-11
  -1.25249997E-02   8.12312023E-11
  -1.25099998E-02   7.96347155E-11
  -1.24949999E-02   8.06629277E-11
  -1.24800000E-02   8.52317938E-11
  -1.24650002E-02   9.42139353E-11
  -1.24500003E-02   1.08403411E-10
  -1.24350004E-02   1.28480018E-10
  -1.24199996E-02   1.54976559E-10
  -1.24049997E-02   1.88246377E-10
  -1.23899998E-02   2.28435784E-10
  -1.23749999E-02   2.75460738E-10
  -1.23600001E-02   3.28987143E-10
  -1.23450002E-02   3.88421073E-10
  -1.23300003E-02   4.52901439E-10
  -1.23150004E-02   5.21304555E-10
  -1.22999996E-02   5.92252247E-10
  -1.22849997E-02   6.64132638E-10
  -1.22699998E-02   7.35123629E-10
  -1.22550000E-02   8.03228983E-10
  -1.22400001E-02   8.66320071E-10
  -1.22250002E-02   9.22180776E-10
  -1.22100003E-02   9.68563674E-10
  -1.21950004E-02   1.00324593E-09
  -1.21799996E-02   1.02409026E-09
  -1.21649997E-02   1.02910835E-09
  -1.21499998E-02   1.01652331E-09
  -1.21350000E-02   9.84827775E-10
  -1.21200001E-02   9.32846689E-10
  -1.21050002E-02   8.59786464E-10
  -1.20900003E-02   7.65282560E-10
  -1.20750004E-02   6.49438614E-10
  -1.20599996E-02   5.12853537E-10
  -1.20449997E-02   3.56641550E-10
  -1.20299999E-02   1.82439799E-10
  -1.20150000E-02  -7.59999442E-12
  -1.20000001E-02  -2.10828466E-10
  -1.19850002E-02  -4.24129759E-10
  -1.19700003E-02  -6.43966824E-10
  -1.19550005E-02  -8.66436034E-10
  -1.19399996E-02  -1.08733900E-09
  -1.19249998E-02  -1.30225830E-09
  -1.19099999E-02  -1.50664592E-09
  -1.18950000E-02  -1.69591907E-09
  -1.18800001E-02  -1.86556082E-09
  -1.18650002E-02  -2.01122274E-09
  -1.18500004E-02  -2.12882778E-09
  -1.18349995E-02  -2.21467888E-09
  -1.18199997E-02  -2.26555197E-09
  -1.18049998E-02  -2.27879116E-09
  -1.17899999E-02  -2.25239272E-09
  -1.17750000E-02  -2.18507679E-09
  -1.17600001E-02  -2.07634687E-09
  -1.17450003E-02  -1.92653182E-09
  -1.17300004E-02  -1.73681691E-09
  -1.17149996E-02  -1.50924828E-09
  -1.16999997E-02  -1.24672761E-09
  -1.16849998E-02  -9.52983470E-10
  -1.16699999E-02  -6.32516317E-10
  -1.16550000E-02  -2.90540980E-10
  -1.16400002E-02   6.71040515E-11
  -1.16250003E-02   4.34055153E-10
  -1.16100004E-02   8.03542510E-10
  -1.15949996E-02   1.16851573E-09
  -1.15799997E-02   1.52178514E-09
  -1.15649998E-02   1.85616678E-09
  -1.15499999E-02   2.16463247E-09
  -1.15350001E-02   2.44046316E-09
  -1.15200002E-02   2.67739697E-09
  -1.15050003E-02   2.86977198E-09
  -1.14900004E-02   3.01265835E-09
  -1.14749996E-02   3.10199022E-09
  -1.14599997E-02   3.13466075E-09
  -1.14449998E-02   3.10861537E-09
  -1.14300000E-02   3.02292635E-09
  -1.14150001E-02   2.87782442E-09
  -1.14000002E-02   2.67473732E-09
  -1.13850003E-02   2.41627407E-09
  -1.13700004E-02   2.10620343E-09
  -1.13549996E-02   1.74939907E-09
  -1.13399997E-02   1.35176059E-09
  -1.13249999E-02   9.20109267E-10
  -1.13100000E-02   4.62069077E-10
  -1.12950001E-02  -1.40757727E-11
  -1.12800002E-02  -4.99546959E-10
  -1.12650003E-02  -9.85236226E-10
  -1.12500004E-02  -1.46189294E-09
  -1.12349996E-02  -1.92030902E-09
  -1.12199998E-02  -2.35151409E-09
  -1.12049999E-02  -2.74695777E-09
  -1.11900000E-02  -3.09869219E-09
  -1.11750001E-02  -3.39954753E-09
  -1.11600002E-02  -3.64327946E-09
  -1.11450003E-02  -3.82471876E-09
  -1.11300005E-02  -3.93987687E-09
  -1.11149997E-02  -3.98605016E-09
  -1.10999998E-02  -3.96187705E-09
  -1.10849999E-02  -3.86737886E-09
  -1.10700000E-02  -3.70397313E-09
  -1.10550001E-02  -3.47444518E-09
  -1.10400002E-02  -3.18290438E-09
  -1.10250004E-02  -2.83470114E-09
  -1.10099996E-02  -2.43631937E-09
  -1.09949997E-02  -1.99524886E-09
  -1.09799998E-02  -1.51982549E-09
  -1.09649999E-02  -1.01906061E-09
  -1.09500000E-02  -5.02455966E-10
  -1.09350001E-02   2.02023641E-11
  -1.09200003E-02   5.39044698E-10
  -1.09050004E-02   1.04433406E-09
  -1.08899996E-02   1.52666335E-09
  -1.08749997E-02   1.97716132E-09
  -1.08599998E-02   2.38767583E-09
  -1.08449999E-02   2.75095013E-09
  -1.08300000E-02   3.06077408E-09
  -1.08150002E-02   3.31210437E-09
  -1.08000003E-02   3.50117646E-09
  -1.07850004E-02   3.62557917E-09
  -1.07699996E-02   3.68428821E-09
  -1.07549997E-02   3.67768593E-09
  -1.07399998E-02   3.60753338E-09
  -1.07249999E-02   3.47693208E-09
  -1.07100001E-02   3.29023253E-09
  -1.06950002E-02   3.05292547E-09
  -1.06800003E-02   2.77151235E-09
  -1.06650004E-02   2.45333931E-09
  -1.06499996E-02   2.10643036E-09
  -1.06349997E-02   1.73929304E-09
  -1.06199998E-02   1.36071487E-09
  -1.06050000E-02   9.79561765E-10
  -1.05900001E-02   6.04563233E-10
  -1.05750002E-02   2.44123999E-10
  -1.05600003E-02  -9.38824782E-11
  -1.05450004E-02  -4.02280043E-10
  -1.05299996E-02  -6.74764244E-10
  -1.05149997E-02  -9.06033748E-10
  -1.04999999E-02  -1.09190246E-09
  -1.04850000E-02  -1.22938815E-09
  -1.04700001E-02  -1.31677069E-09
  -1.04550002E-02  -1.35360800E-09
  -1.04400003E-02  -1.34074774E-09
  -1.04250005E-02  -1.28026123E-09
  -1.04099996E-02  -1.17540200E-09
  -1.03949998E-02  -1.03048592E-09
  -1.03799999E-02  -8.50793158E-10
  -1.03650000E-02  -6.42397857E-10
  -1.03500001E-02  -4.12009982E-10
  -1.03350002E-02  -1.66804695E-10
  -1.03200004E-02   8.57794807E-11
  -1.03049995E-02   3.38235190E-10
  -1.02899997E-02   5.83184778E-10
  -1.02749998E-02   8.13566881E-10
  -1.02599999E-02   1.02282749E-09
  -1.02450000E-02   1.20508503E-09
  -1.02300001E-02   1.35528000E-09
  -1.02150002E-02   1.46932266E-09
  -1.02000004E-02   1.54417346E-09
  -1.01849996E-02   1.57792446E-09
  -1.01699997E-02   1.56986002E-09
  -1.01549998E-02   1.52045332E-09
  -1.01399999E-02   1.43136414E-09
  -1.01250000E-02   1.30538580E-09
  -1.01100001E-02   1.14635590E-09
  -1.00950003E-02   9.59072044E-10
  -1.00800004E-02   7.49138807E-10
  -1.00649996E-02   5.22830557E-10
  -1.00499997E-02   2.86904611E-10
  -1.00349998E-02   4.84334899E-11
  -1.00199999E-02  -1.85407745E-10
  -1.00050000E-02  -4.07516881E-10
  -9.99000017E-03  -6.11099893E-10
  -9.97500028E-03  -7.89804722E-10
  -9.96000040E-03  -9.37959266E-10
  -9.94499959E-03  -1.05068609E-09
  -9.92999971E-03  -1.12407117E-09
  -9.91499983E-03  -1.15526932E-09
  -9.89999995E-03  -1.14260357E-09
  -9.88500006E-03  -1.08560849E-09
  -9.87000018E-03  -9.85075466E-10
  -9.85500030E-03  -8.43027703E-10
  -9.84000042E-03  -6.62698230E-10
  -9.82499961E-03  -4.48451359E-10
  -9.80999973E-03  -2.05672063E-10
  -9.79499985E-03   5.93515515E-11
  -9.77999996E-03   3.39589579E-10
  -9.76500008E-03   6.27451702E-10
  -9.75000020E-03   9.14972542E-10
  -9.73500032E-03   1.19402521E-09
  -9.72000044E-03   1.45652923E-09
  -9.70499963E-03   1.69466963E-09
  -9.68999974E-03   1.90111304E-09
  -9.67499986E-03   2.06917794E-09
  -9.65999998E-03   2.19306440E-09
  -9.64500010E-03   2.26798114E-09
  -9.63000022E-03   2.29031571E-09
  -9.61500034E-03   2.25772689E-09
  -9.60000046E-03   2.16923168E-09
  -9.58499964E-03   2.02525863E-09
  -9.56999976E-03   1.82764914E-09
  -9.55499988E-03   1.57964830E-09
  -9.54000000E-03   1.28582356E-09
  -9.52500012E-03   9.51989931E-10
  -9.51000024E-03   5.85073101E-10
  -9.49500035E-03   1.92954569E-10
  -9.47999954E-03  -2.15723814E-10
  -9.46499966E-03  -6.31746544E-10
  -9.44999978E-03  -1.04553866E-09
  -9.43499990E-03  -1.44745027E-09
  -9.42000002E-03  -1.82792448E-09
  -9.40500014E-03  -2.17778773E-09
  -9.39000025E-03  -2.48845655E-09
  -9.37500037E-03  -2.75214695E-09
  -9.35999956E-03  -2.96211922E-09
  -9.34499968E-03  -3.11278825E-09
  -9.32999980E-03  -3.19993410E-09
  -9.31499992E-03  -3.22078630E-09
  -9.30000003E-03  -3.17409365E-09
  -9.28500015E-03  -3.06020276E-09
  -9.27000027E-03  -2.88103297E-09
  -9.25500039E-03  -2.64006705E-09
  -9.23999958E-03  -2.34225039E-09
  -9.22499970E-03  -1.99390704E-09
  -9.20999981E-03  -1.60256308E-09
  -9.19499993E-03  -1.17681642E-09
  -9.18000005E-03  -7.26079197E-10
  -9.16500017E-03  -2.60392569E-10
  -9.15000029E-03   2.09833054E-10
  -9.13500041E-03   6.74060141E-10
  -9.11999959E-03   1.12190202E-09
  -9.10499971E-03   1.54334967E-09
  -9.08999983E-03   1.92900651E-09
  -9.07499995E-03   2.27038455E-09
  -9.06000007E-03   2.56004262E-09
  -9.04500019E-03   2.79178947E-09
  -9.03000031E-03   2.96084801E-09
  -9.01500043E-03   3.06398396E-09
  -8.99999961E-03   3.09951864E-09
  -8.98499973E-03   3.06744097E-09
  -8.96999985E-03   2.96938762E-09
  -8.95499997E-03   2.80855694E-09
  -8.94000009E-03   2.58966537E-09
  -8.92500021E-03   2.31879360E-09
  -8.91000032E-03   2.00326311E-09
  -8.89500044E-03   1.65140546E-09
  -8.87999963E-03   1.27236111E-09
  -8.86499975E-03   8.75838457E-10
  -8.84999987E-03   4.71895356E-10
  -8.83499999E-03   7.06073394E-11
  -8.82000010E-03  -3.18124527E-10
  -8.80500022E-03  -6.84882262E-10
  -8.79000034E-03  -1.02093389E-09
  -8.77500046E-03  -1.31850619E-09
  -8.75999965E-03  -1.57093882E-09
  -8.74499977E-03  -1.77286896E-09
  -8.72999988E-03  -1.92038363E-09
  -8.71500000E-03  -2.01112393E-09
  -8.70000012E-03  -2.04428363E-09
  -8.68500024E-03  -2.02069073E-09
  -8.67000036E-03  -1.94271421E-09
  -8.65499955E-03  -1.81423210E-09
  -8.63999967E-03  -1.64049874E-09
  -8.62499978E-03  -1.42798218E-09
  -8.60999990E-03  -1.18419285E-09
  -8.59500002E-03  -9.17447562E-10
  -8.58000014E-03  -6.36613429E-10
  -8.56500026E-03  -3.50885598E-10
  -8.55000038E-03  -6.94880403E-11
  -8.53499956E-03   1.98583844E-10
  -8.51999968E-03   4.44879411E-10
  -8.50499980E-03   6.61677602E-10
  -8.48999992E-03   8.42299341E-10
  -8.47500004E-03   9.81263959E-10
  -8.46000016E-03   1.07446185E-09
  -8.44500028E-03   1.11940945E-09
  -8.43000039E-03   1.11518017E-09
  -8.41499958E-03   1.06259024E-09
  -8.39999970E-03   9.64141211E-10
  -8.38499982E-03   8.23984436E-10
  -8.36999994E-03   6.47880583E-10
  -8.35500006E-03   4.42955950E-10
  -8.34000017E-03   2.17610790E-10
  -8.32500029E-03  -1.87590533E-11
  -8.31000041E-03  -2.55977406E-10
  -8.29499960E-03  -4.83429019E-10
  -8.27999972E-03  -6.90331015E-10
  -8.26499984E-03  -8.66044458E-10
  -8.24999996E-03  -1.00048891E-09
  -8.23500007E-03  -1.08437148E-09
  -8.22000019E-03  -1.10956300E-09
  -8.20500031E-03  -1.06935216E-09
  -8.19000043E-03  -9.58741642E-10
  -8.17499962E-03  -7.74610320E-10
  -8.15999974E-03  -5.16046872E-10
  -8.14499985E-03  -1.84252433E-10
  -8.12999997E-03   2.17154295E-10
  -8.11500009E-03   6.82292889E-10
  -8.10000021E-03   1.20295562E-09
  -8.08500033E-03   1.76876147E-09
  -8.07000045E-03   2.36733055E-09
  -8.05499963E-03   2.98445180E-09
  -8.03999975E-03   3.60447627E-09
  -8.02499987E-03   4.21048085E-09
  -8.00999999E-03   4.78482942E-09
  -7.99500011E-03   5.30937960E-09
  -7.98000023E-03   5.76611603E-09
  -7.96500035E-03   6.13742124E-09
  -7.95000046E-03   6.40666320E-09
  -7.93499965E-03   6.55852128E-09
  -7.91999977E-03   6.57954624E-09
  -7.90499989E-03   6.45845333E-09
  -7.89000001E-03   6.18650686E-09
  -7.87500013E-03   5.75793369E-09
  -7.86000025E-03   5.17001331E-09
  -7.84500036E-03   4.42344428E-09
  -7.82999955E-03   3.52237173E-09
  -7.81499967E-03   2.47450549E-09
  -7.79999979E-03   1.29091349E-09
  -7.78499991E-03  -1.37367461E-11
  -7.77000003E-03  -1.42175316E-09
  -7.75500014E-03  -2.91239499E-09
  -7.73999980E-03  -4.46233184E-09
  -7.72499992E-03  -6.04611117E-09
  -7.71000003E-03  -7.63642838E-09
  -7.69500015E-03  -9.20483423E-09
  -7.67999981E-03  -1.07222116E-08
  -7.66499992E-03  -1.21592807E-08
  -7.65000004E-03  -1.34873286E-08
  -7.63500016E-03  -1.46788075E-08
  -7.61999981E-03  -1.57077622E-08
  -7.60499993E-03  -1.65505902E-08
  -7.59000005E-03  -1.71865224E-08
  -7.57500017E-03  -1.75981132E-08
  -7.55999982E-03  -1.77716064E-08
  -7.54499994E-03  -1.76973938E-08
  -7.53000006E-03  -1.73702901E-08
  -7.51500018E-03  -1.67896417E-08
  -7.49999983E-03  -1.59594986E-08
  -7.48499995E-03  -1.48887160E-08
  -7.47000007E-03  -1.35906966E-08
  -7.45500019E-03  -1.20833388E-08
  -7.43999984E-03  -1.03887690E-08
  -7.42499996E-03  -8.53293614E-09
  -7.41000008E-03  -6.54518262E-09
  -7.39500020E-03  -4.45773596E-09
  -7.37999985E-03  -2.30524422E-09
  -7.36499997E-03  -1.23886318E-10
  -7.35000009E-03   2.04898143E-09
  -7.33500021E-03   4.17581703E-09
  -7.31999986E-03   6.21925489E-09
  -7.30499998E-03   8.14317325E-09
  -7.29000010E-03   9.91307836E-09
  -7.27500021E-03   1.14969421E-08
  -7.25999987E-03   1.28657636E-08
  -7.24499999E-03   1.39941099E-08
  -7.23000010E-03   1.48605697E-08
  -7.21500022E-03   1.54483057E-08
  -7.19999988E-03   1.57451083E-08
  -7.18499999E-03   1.57438880E-08
  -7.17000011E-03   1.54427351E-08
  -7.15500023E-03   1.48448205E-08
  -7.13999989E-03   1.39585445E-08
  -7.12500000E-03   1.27972104E-08
  -7.11000012E-03   1.13788099E-08
  -7.09499978E-03   9.72557235E-09
  -7.07999989E-03   7.86392196E-09
  -7.06500001E-03   5.82339421E-09
  -7.05000013E-03   3.63654684E-09
  -7.03499978E-03   1.33820088E-09
  -7.01999990E-03  -1.03545073E-09
  -7.00500002E-03  -3.44706885E-09
  -6.99000014E-03  -5.85928506E-09
  -6.97499979E-03  -8.23497270E-09
  -6.95999991E-03  -1.05384581E-08
  -6.94500003E-03  -1.27355602E-08
  -6.93000015E-03  -1.47944554E-08
  -6.91499980E-03  -1.66862240E-08
  -6.89999992E-03  -1.83854958E-08
  -6.88500004E-03  -1.98704129E-08
  -6.87000016E-03  -2.11233981E-08
  -6.85499981E-03  -2.21311502E-08
  -6.83999993E-03  -2.28846915E-08
  -6.82500005E-03  -2.33798723E-08
  -6.81000017E-03  -2.36168862E-08
  -6.79499982E-03  -2.36004780E-08
  -6.77999994E-03  -2.33394744E-08
  -6.76500006E-03  -2.28467805E-08
  -6.75000018E-03  -2.21389769E-08
  -6.73499983E-03  -2.12357545E-08
  -6.71999995E-03  -2.01598240E-08
  -6.70500007E-03  -1.89360065E-08
  -6.69000018E-03  -1.75910433E-08
  -6.67499984E-03  -1.61529723E-08
  -6.65999996E-03  -1.46503529E-08
  -6.64500007E-03  -1.31122135E-08
  -6.63000019E-03  -1.15671925E-08
  -6.61499985E-03  -1.00431699E-08
  -6.59999996E-03  -8.56654214E-09
  -6.58500008E-03  -7.16230275E-09
  -6.57000020E-03  -5.85300253E-09
  -6.55499985E-03  -4.65908689E-09
  -6.53999997E-03  -3.59834829E-09
  -6.52500009E-03  -2.68562395E-09
  -6.51000021E-03  -1.93287786E-09
  -6.49499986E-03  -1.34872002E-09
  -6.47999998E-03  -9.39057720E-10
  -6.46500010E-03  -7.06456449E-10
  -6.45000022E-03  -6.50587140E-10
  -6.43499987E-03  -7.68440034E-10
  -6.41999999E-03  -1.05450559E-09
  -6.40500011E-03  -1.50085322E-09
  -6.39000023E-03  -2.09721196E-09
  -6.37499988E-03  -2.83162760E-09
  -6.36000000E-03  -3.69084052E-09
  -6.34500012E-03  -4.66028993E-09
  -6.32999977E-03  -5.72429260E-09
  -6.31499989E-03  -6.86689861E-09
  -6.30000001E-03  -8.07168998E-09
  -6.28500013E-03  -9.32245925E-09
  -6.26999978E-03  -1.06032223E-08
  -6.25499990E-03  -1.18984511E-08
  -6.24000002E-03  -1.31932953E-08
  -6.22500014E-03  -1.44740779E-08
  -6.20999979E-03  -1.57281548E-08
  -6.19499991E-03  -1.69438330E-08
  -6.18000003E-03  -1.81109510E-08
  -6.16500014E-03  -1.92204972E-08
  -6.14999980E-03  -2.02652171E-08
  -6.13499992E-03  -2.12388578E-08
  -6.12000003E-03  -2.21367991E-08
  -6.10500015E-03  -2.29554153E-08
  -6.08999981E-03  -2.36931186E-08
  -6.07499992E-03  -2.43488749E-08
  -6.06000004E-03  -2.49230148E-08
  -6.04500016E-03  -2.54169663E-08
  -6.02999981E-03  -2.58332076E-08
  -6.01499993E-03  -2.61752415E-08
  -6.00000005E-03  -2.64471947E-08
  -5.98500017E-03  -2.66540638E-08
  -5.96999982E-03  -2.68016382E-08
  -5.95499994E-03  -2.68963429E-08
  -5.94000006E-03  -2.69452052E-08
  -5.92500018E-03  -2.69553162E-08
  -5.90999983E-03  -2.69345719E-08
  -5.89499995E-03  -2.68912519E-08
  -5.88000007E-03  -2.68339768E-08
  -5.86500019E-03  -2.67717422E-08
  -5.84999984E-03  -2.67133942E-08
  -5.83499996E-03  -2.66679621E-08
  -5.82000008E-03  -2.66449387E-08
  -5.80500020E-03  -2.66537512E-08
  -5.78999985E-03  -2.67032245E-08
  -5.77499997E-03  -2.68024198E-08
  -5.76000009E-03  -2.69600502E-08
  -5.74500021E-03  -2.71844005E-08
  -5.72999986E-03  -2.74831855E-08
  -5.71499998E-03  -2.78633916E-08
  -5.70000010E-03  -2.83316215E-08
  -5.68500021E-03  -2.88930639E-08
  -5.66999987E-03  -2.95519449E-08
  -5.65499999E-03  -3.03114014E-08
  -5.64000010E-03  -3.11728705E-08
  -5.62500022E-03  -3.21370379E-08
  -5.60999988E-03  -3.32022836E-08
  -5.59500000E-03  -3.43654314E-08
  -5.58000011E-03  -3.56228931E-08
  -5.56500023E-03  -3.69679753E-08
  -5.54999989E-03  -3.83931464E-08
  -5.53500000E-03  -3.98881461E-08
  -5.52000012E-03  -4.14427888E-08
  -5.50499978E-03  -4.30443166E-08
  -5.48999989E-03  -4.46789024E-08
  -5.47500001E-03  -4.63318948E-08
  -5.46000013E-03  -4.79877187E-08
  -5.44499978E-03  -4.96300494E-08
  -5.42999990E-03  -5.12424378E-08
  -5.41500002E-03  -5.28082644E-08
  -5.40000014E-03  -5.43114780E-08
  -5.38499979E-03  -5.57364608E-08
  -5.36999991E-03  -5.70684264E-08
  -5.35500003E-03  -5.82944786E-08
  -5.34000015E-03  -5.94028684E-08
  -5.32499980E-03  -6.03844015E-08
  -5.30999992E-03  -6.12319937E-08
  -5.29500004E-03  -6.19407672E-08
  -5.28000016E-03  -6.25087324E-08
  -5.26499981E-03  -6.29371684E-08
  -5.24999993E-03  -6.32303170E-08
  -5.23500005E-03  -6.33951487E-08
  -5.22000017E-03  -6.34411847E-08
  -5.20499982E-03  -6.33816626E-08
  -5.18999994E-03  -6.32335073E-08
  -5.17500006E-03  -6.30144683E-08
  -5.16000018E-03  -6.27461034E-08
  -5.14499983E-03  -6.24510292E-08
  -5.12999995E-03  -6.21538803E-08
  -5.11500007E-03  -6.18806553E-08
  -5.10000018E-03  -6.16577651E-08
  -5.08499984E-03  -6.15119262E-08
  -5.06999996E-03  -6.14697555E-08
  -5.05500007E-03  -6.15570741E-08
  -5.04000019E-03  -6.17983531E-08
  -5.02499985E-03  -6.22151219E-08
  -5.00999996E-03  -6.28296775E-08
  -4.99500008E-03  -6.36577937E-08
  -4.98000020E-03  -6.47144773E-08
  -4.96499985E-03  -6.60105997E-08
  -4.94999997E-03  -6.75535858E-08
  -4.93500009E-03  -6.93458801E-08
  -4.92000021E-03  -7.13861539E-08
  -4.90499986E-03  -7.36709538E-08
  -4.88999998E-03  -7.61906236E-08
  -4.87500010E-03  -7.89324375E-08
  -4.86000022E-03  -8.18788237E-08
  -4.84499987E-03  -8.50103845E-08
  -4.82999999E-03  -8.83041267E-08
  -4.81500011E-03  -9.17353589E-08
  -4.80000023E-03  -9.52737409E-08
  -4.78499988E-03  -9.88918387E-08
  -4.77000000E-03  -1.02560030E-07
  -4.75500012E-03  -1.06247477E-07
  -4.73999977E-03  -1.09923683E-07
  -4.72499989E-03  -1.13560802E-07
  -4.71000001E-03  -1.17129893E-07
  -4.69500013E-03  -1.20606458E-07
  -4.67999978E-03  -1.23968391E-07
  -4.66499990E-03  -1.27194511E-07
  -4.65000002E-03  -1.30268475E-07
  -4.63500014E-03  -1.33180080E-07
  -4.61999979E-03  -1.35917631E-07
  -4.60499991E-03  -1.38479962E-07
  -4.59000003E-03  -1.40863875E-07
  -4.57500014E-03  -1.43073947E-07
  -4.55999980E-03  -1.45119714E-07
  -4.54499992E-03  -1.47010255E-07
  -4.53000003E-03  -1.48762510E-07
  -4.51500015E-03  -1.50394385E-07
  -4.49999981E-03  -1.51922265E-07
  -4.48499992E-03  -1.53371516E-07
  -4.47000004E-03  -1.54764592E-07
  -4.45500016E-03  -1.56124784E-07
  -4.43999982E-03  -1.57473877E-07
  -4.42499993E-03  -1.58838731E-07
  -4.41000005E-03  -1.60237121E-07
  -4.39500017E-03  -1.61693620E-07
  -4.37999982E-03  -1.63222410E-07
  -4.36499994E-03  -1.64839477E-07
  -4.35000006E-03  -1.66559843E-07
  -4.33500018E-03  -1.68389079E-07
  -4.31999983E-03  -1.70331219E-07
  -4.30499995E-03  -1.72391267E-07
  -4.29000007E-03  -1.74563326E-07
  -4.27500019E-03  -1.76845319E-07
  -4.25999984E-03  -1.79226205E-07
  -4.24499996E-03  -1.81694361E-07
  -4.23000008E-03  -1.84237109E-07
  -4.21500020E-03  -1.86835805E-07
  -4.19999985E-03  -1.89474676E-07
  -4.18499997E-03  -1.92133527E-07
  -4.17000009E-03  -1.94796669E-07
  -4.15500021E-03  -1.97444422E-07
  -4.13999986E-03  -2.00060910E-07
  -4.12499998E-03  -2.02631554E-07
  -4.11000010E-03  -2.05144829E-07
  -4.09500021E-03  -2.07593359E-07
  -4.07999987E-03  -2.09970665E-07
  -4.06499999E-03  -2.12277840E-07
  -4.05000011E-03  -2.14518622E-07
  -4.03500022E-03  -2.16704734E-07
  -4.01999988E-03  -2.18846480E-07
  -4.00500000E-03  -2.20963543E-07
  -3.99000011E-03  -2.23078317E-07
  -3.97500023E-03  -2.25216581E-07
  -3.95999989E-03  -2.27414404E-07
  -3.94500000E-03  -2.29704398E-07
  -3.93000012E-03  -2.32122332E-07
  -3.91499978E-03  -2.34709077E-07
  -3.89999989E-03  -2.37503386E-07
  -3.88500001E-03  -2.40544892E-07
  -3.86999990E-03  -2.43874069E-07
  -3.85500002E-03  -2.47522678E-07
  -3.83999990E-03  -2.51527837E-07
  -3.82500002E-03  -2.55919161E-07
  -3.80999991E-03  -2.60717343E-07
  -3.79500003E-03  -2.65945573E-07
  -3.77999991E-03  -2.71611782E-07
  -3.76500003E-03  -2.77720659E-07
  -3.74999992E-03  -2.84268850E-07
  -3.73500003E-03  -2.91242856E-07
  -3.71999992E-03  -2.98626105E-07
  -3.70500004E-03  -3.06387278E-07
  -3.68999992E-03  -3.14493349E-07
  -3.67500004E-03  -3.22895005E-07
  -3.65999993E-03  -3.31551263E-07
  -3.64500005E-03  -3.40391068E-07
  -3.62999993E-03  -3.49358800E-07
  -3.61500005E-03  -3.58390281E-07
  -3.59999994E-03  -3.67410763E-07
  -3.58500006E-03  -3.76347771E-07
  -3.56999994E-03  -3.85128885E-07
  -3.55500006E-03  -3.93684019E-07
  -3.53999995E-03  -4.01940753E-07
  -3.52500007E-03  -4.09843466E-07
  -3.50999995E-03  -4.17326277E-07
  -3.49500007E-03  -4.24333507E-07
  -3.47999996E-03  -4.30825651E-07
  -3.46500007E-03  -4.36768659E-07
  -3.44999996E-03  -4.42136610E-07
  -3.43500008E-03  -4.46915635E-07
  -3.41999996E-03  -4.51103034E-07
  -3.40500008E-03  -4.54707788E-07
  -3.38999997E-03  -4.57750303E-07
  -3.37500009E-03  -4.60269376E-07
  -3.35999997E-03  -4.62304740E-07
  -3.34500009E-03  -4.63909288E-07
  -3.32999998E-03  -4.65162941E-07
  -3.31500010E-03  -4.66135049E-07
  -3.29999998E-03  -4.66900786E-07
  -3.28500010E-03  -4.67552383E-07
  -3.26999999E-03  -4.68190706E-07
  -3.25500011E-03  -4.68907388E-07
  -3.23999999E-03  -4.69798294E-07
  -3.22500011E-03  -4.70965375E-07
  -3.21000000E-03  -4.72499750E-07
  -3.19500011E-03  -4.74493248E-07
  -3.18000000E-03  -4.77033780E-07
  -3.16499989E-03  -4.80184553E-07
  -3.15000000E-03  -4.84024611E-07
  -3.13499989E-03  -4.88608180E-07
  -3.12000001E-03  -4.93979883E-07
  -3.10499989E-03  -5.00161605E-07
  -3.09000001E-03  -5.07182051E-07
  -3.07499990E-03  -5.15035879E-07
  -3.06000002E-03  -5.23715926E-07
  -3.04499990E-03  -5.33199454E-07
  -3.03000002E-03  -5.43449175E-07
  -3.01499991E-03  -5.54413816E-07
  -3.00000003E-03  -5.66019480E-07
  -2.98499991E-03  -5.78211029E-07
  -2.97000003E-03  -5.90892739E-07
  -2.95499992E-03  -6.03981277E-07
  -2.94000003E-03  -6.17382682E-07
  -2.92499992E-03  -6.30986449E-07
  -2.91000004E-03  -6.44700776E-07
  -2.89499993E-03  -6.58408794E-07
  -2.88000004E-03  -6.72038141E-07
  -2.86499993E-03  -6.85467853E-07
  -2.85000005E-03  -6.98624831E-07
  -2.83499993E-03  -7.11419659E-07
  -2.82000005E-03  -7.23769062E-07
  -2.80499994E-03  -7.35632057E-07
  -2.79000006E-03  -7.46935655E-07
  -2.77499994E-03  -7.57648934E-07
  -2.76000006E-03  -7.67743984E-07
  -2.74499995E-03  -7.77207731E-07
  -2.73000007E-03  -7.86050634E-07
  -2.71499995E-03  -7.94268601E-07
  -2.70000007E-03  -8.01912449E-07
  -2.68499996E-03  -8.09000028E-07
  -2.67000007E-03  -8.15592102E-07
  -2.65499996E-03  -8.21750120E-07
  -2.64000008E-03  -8.27536155E-07
  -2.62499996E-03  -8.33031038E-07
  -2.61000008E-03  -8.38300593E-07
  -2.59499997E-03  -8.43448447E-07
  -2.58000009E-03  -8.48542868E-07
  -2.56499997E-03  -8.53678557E-07
  -2.55000009E-03  -8.58925887E-07
  -2.53499998E-03  -8.64382343E-07
  -2.52000010E-03  -8.70107613E-07
  -2.50499998E-03  -8.76163142E-07
  -2.49000010E-03  -8.82607992E-07
  -2.47499999E-03  -8.89506509E-07
  -2.46000011E-03  -8.96895415E-07
  -2.44499999E-03  -9.04781075E-07
  -2.43000011E-03  -9.13188046E-07
  -2.41500000E-03  -9.22123888E-07
  -2.40000011E-03  -9.31581269E-07
  -2.38500000E-03  -9.41554958E-07
  -2.36999989E-03  -9.52007895E-07
  -2.35500000E-03  -9.62901368E-07
  -2.33999989E-03  -9.74202408E-07
  -2.32500001E-03  -9.85863835E-07
  -2.30999989E-03  -9.97826987E-07
  -2.29500001E-03  -1.01004412E-06
  -2.27999990E-03  -1.02242871E-06
  -2.26500002E-03  -1.03493539E-06
  -2.24999990E-03  -1.04751939E-06
  -2.23500002E-03  -1.06011885E-06
  -2.21999991E-03  -1.07265919E-06
  -2.20500003E-03  -1.08508448E-06
  -2.18999991E-03  -1.09738403E-06
  -2.17500003E-03  -1.10949350E-06
  -2.15999992E-03  -1.12140322E-06