  -1.49999997E-02   0.00000000    
  -1.49849998E-02   0.00000000    
  -1.49699999E-02   0.00000000    
  -1.49550000E-02   0.00000000    
  -1.49400001E-02   0.00000000    
  -1.49250003E-02   0.00000000    
  -1.49100004E-02   0.00000000    
  -1.48949996E-02   0.00000000    
  -1.48799997E-02   0.00000000    
  -1.48649998E-02   0.00000000    
  -1.48499999E-02   0.00000000    
  -1.48350000E-02   0.00000000    
  -1.48200002E-02   0.00000000    
  -1.48050003E-02   0.00000000    
  -1.47900004E-02   0.00000000    
  -1.47749996E-02   0.00000000    
  -1.47599997E-02   0.00000000    
  -1.47449998E-02   0.00000000    
  -1.47299999E-02   0.00000000    
  -1.47150001E-02   0.00000000    
  -1.47000002E-02   0.00000000    
  -1.46850003E-02   0.00000000    
  -1.46700004E-02   0.00000000    
  -1.46549996E-02   0.00000000    
  -1.46399997E-02   0.00000000    
  -1.46249998E-02   0.00000000    
  -1.46100000E-02   0.00000000    
  -1.45950001E-02   0.00000000    
  -1.45800002E-02   0.00000000    
  -1.45650003E-02   0.00000000    
  -1.45500004E-02   0.00000000    
  -1.45349996E-02   0.00000000    
  -1.45199997E-02   0.00000000    
  -1.45049999E-02   0.00000000    
  -1.44900000E-02   0.00000000    
  -1.44750001E-02   0.00000000    
  -1.44600002E-02   0.00000000    
  -1.44450003E-02   0.00000000    
  -1.44300004E-02   0.00000000    
  -1.44149996E-02   0.00000000    
  -1.43999998E-02   0.00000000    
  -1.43849999E-02   0.00000000    
  -1.43700000E-02   0.00000000    
  -1.43550001E-02   0.00000000    
  -1.43400002E-02   0.00000000    
  -1.43250003E-02   0.00000000    
  -1.43100005E-02   0.00000000    
  -1.42949997E-02   0.00000000    
  -1.42799998E-02   0.00000000    
  -1.42649999E-02   0.00000000    
  -1.42500000E-02   0.00000000    
  -1.42350001E-02   0.00000000    
  -1.42200002E-02   0.00000000    
  -1.42050004E-02   0.00000000    
  -1.41899996E-02   0.00000000    
  -1.41749997E-02   0.00000000    
  -1.41599998E-02   0.00000000    
  -1.41449999E-02   0.00000000    
  -1.41300000E-02   0.00000000    
  -1.41150001E-02   0.00000000    
  -1.41000003E-02   0.00000000    
  -1.40850004E-02   0.00000000    
  -1.40699996E-02   0.00000000    
  -1.40549997E-02   0.00000000    
  -1.40399998E-02   0.00000000    
  -1.40249999E-02   0.00000000    
  -1.40100000E-02   0.00000000    
  -1.39950002E-02   0.00000000    
  -1.39800003E-02   0.00000000    
  -1.39650004E-02   0.00000000    
  -1.39499996E-02   0.00000000    
  -1.39349997E-02   0.00000000    
  -1.39199998E-02   0.00000000    
  -1.39049999E-02   0.00000000    
  -1.38900001E-02   0.00000000    
  -1.38750002E-02   0.00000000    
  -1.38600003E-02   0.00000000    
  -1.38450004E-02   0.00000000    
  -1.38299996E-02   0.00000000    
  -1.38149997E-02   0.00000000    
  -1.37999998E-02   0.00000000    
  -1.37850000E-02   0.00000000    
  -1.37700001E-02   0.00000000    
  -1.37550002E-02   0.00000000    
  -1.37400003E-02   0.00000000    
  -1.37250004E-02   0.00000000    
  -1.37099996E-02   0.00000000    
  -1.36949997E-02   0.00000000    
  -1.36799999E-02   0.00000000    
  -1.36650000E-02   0.00000000    
  -1.36500001E-02   0.00000000    
  -1.36350002E-02   0.00000000    
  -1.36200003E-02   0.00000000    
  -1.36050005E-02   0.00000000    
  -1.35899996E-02   0.00000000    
  -1.35749998E-02   0.00000000    
  -1.35599999E-02   0.00000000    
  -1.35450000E-02   0.00000000    
  -1.35300001E-02   0.00000000    
  -1.35150002E-02   0.00000000    
  -1.35000004E-02   0.00000000    
  -1.34849995E-02   0.00000000    
  -1.34699997E-02   0.00000000    
  -1.34549998E-02   0.00000000    
  -1.34399999E-02   0.00000000    
  -1.34250000E-02   0.00000000    
  -1.34100001E-02   0.00000000    
  -1.33950002E-02   0.00000000    
  -1.33800004E-02   0.00000000    
  -1.33649996E-02   0.00000000    
  -1.33499997E-02   0.00000000    
  -1.33349998E-02   0.00000000    
  -1.33199999E-02   0.00000000    
  -1.33050000E-02   0.00000000    
  -1.32900001E-02   0.00000000    
  -1.32750003E-02   0.00000000    
  -1.32600004E-02   0.00000000    
  -1.32449996E-02   0.00000000    
  -1.32299997E-02   0.00000000    
  -1.32149998E-02   0.00000000    
  -1.31999999E-02   0.00000000    
  -1.31850000E-02   0.00000000    
  -1.31700002E-02   0.00000000    
  -1.31550003E-02   0.00000000    
  -1.31400004E-02   0.00000000    
  -1.31249996E-02   0.00000000    
  -1.31099997E-02   0.00000000    
  -1.30949998E-02   0.00000000    
  -1.30799999E-02   0.00000000    
  -1.30650001E-02   0.00000000    
  -1.30500002E-02   0.00000000    
  -1.30350003E-02   0.00000000    
  -1.30200004E-02   0.00000000    
  -1.30049996E-02   0.00000000    
  -1.29899997E-02   0.00000000    
  -1.29749998E-02   0.00000000    
  -1.29600000E-02   0.00000000    
  -1.29450001E-02   0.00000000    
  -1.29300002E-02   0.00000000    
  -1.29150003E-02   0.00000000    
  -1.29000004E-02   0.00000000    
  -1.28849996E-02   0.00000000    
  -1.28699997E-02   0.00000000    
  -1.28549999E-02   0.00000000    
  -1.28400000E-02   0.00000000    
  -1.28250001E-02   0.00000000    
  -1.28100002E-02   0.00000000    
  -1.27950003E-02  -0.00000000    
  -1.27800005E-02   0.00000000    
  -1.27649996E-02   0.00000000    
  -1.27499998E-02   1.21971961E-38
  -1.27349999E-02   2.15687061E-38
  -1.27200000E-02   3.28835312E-38
  -1.27050001E-02   5.30671056E-38
  -1.26900002E-02   8.55932832E-38
  -1.26750004E-02   1.26010823E-37
  -1.26599995E-02   1.73115953E-37
  -1.26449997E-02   2.26285398E-37
  -1.26299998E-02   2.81643817E-37
  -1.26149999E-02   3.33191736E-37
  -1.26000000E-02   3.77445055E-37
  -1.25850001E-02   4.08361780E-37
  -1.25700003E-02   4.24193314E-37
  -1.25550004E-02   4.15960808E-37
  -1.25399996E-02   3.61733002E-37
  -1.25249997E-02   2.48658955E-37
  -1.25099998E-02   5.67142763E-38
  -1.24949999E-02  -2.37658964E-37
  -1.24800000E-02  -6.56249998E-37
  -1.24650002E-02  -1.22942044E-36
  -1.24500003E-02  -1.98604951E-36
  -1.24350004E-02  -2.95329718E-36
  -1.24199996E-02  -4.15154127E-36
  -1.24049997E-02  -5.55515535E-36
  -1.23899998E-02  -7.16080537E-36
  -1.23749999E-02  -8.99645919E-36
  -1.23600001E-02  -1.10513681E-35
  -1.23450002E-02  -1.33506972E-35
  -1.23300003E-02  -1.59126621E-35
  -1.23150004E-02  -1.87221625E-35
  -1.22999996E-02  -2.15787530E-35
  -1.22849997E-02  -2.42140701E-35
  -1.22699998E-02  -2.65322793E-35
  -1.22550000E-02  -2.84037690E-35
  -1.22400001E-02  -2.97178202E-35
  -1.22250002E-02  -3.04878149E-35
  -1.22100003E-02  -3.04974519E-35
  -1.21950004E-02  -2.95248135E-35
  -1.21799996E-02  -2.75725086E-35
  -1.21649997E-02  -2.46256998E-35
  -1.21499998E-02  -2.02707529E-35
  -1.21350000E-02  -1.39512970E-35
  -1.21200001E-02  -4.84552669E-36
  -1.21050002E-02   7.84489516E-36
  -1.20900003E-02   2.46305211E-35
  -1.20750004E-02   4.64538923E-35
  -1.20599996E-02   7.41532372E-35
  -1.20449997E-02   1.08512524E-34
  -1.20299999E-02   1.50360421E-34
  -1.20150000E-02   2.00534882E-34
  -1.20000001E-02   2.59887337E-34
  -1.19850002E-02   3.29562469E-34
  -1.19700003E-02   4.10947361E-34
  -1.19550005E-02   5.04720999E-34
  -1.19399996E-02   6.11380857E-34
  -1.19249998E-02   7.31805661E-34
  -1.19099999E-02   8.66074850E-34
  -1.18950000E-02   1.01364926E-33
  -1.18800001E-02   1.17386289E-33
  -1.18650002E-02   1.34479143E-33
  -1.18500004E-02   1.52296717E-33
  -1.18349995E-02   1.70430536E-33
  -1.18199997E-02   1.87706575E-33
  -1.18049998E-02   2.02577845E-33
  -1.17899999E-02   2.14056713E-33
  -1.17750000E-02   2.20970108E-33
  -1.17600001E-02   2.21811284E-33
  -1.17450003E-02   2.14924742E-33
  -1.17300004E-02   1.98403812E-33
  -1.17149996E-02   1.70216137E-33
  -1.16999997E-02   1.28738442E-33
  -1.16849998E-02   7.19062476E-34
  -1.16699999E-02  -3.33902356E-35
  -1.16550000E-02  -1.00235625E-33
  -1.16400002E-02  -2.20979034E-33
  -1.16250003E-02  -3.66893497E-33
  -1.16100004E-02  -5.39293592E-33
  -1.15949996E-02  -7.38262909E-33
  -1.15799997E-02  -9.62671466E-33
  -1.15649998E-02  -1.21071466E-32
  -1.15499999E-02  -1.47937286E-32
  -1.15350001E-02  -1.76361915E-32
  -1.15200002E-02  -2.05653765E-32
  -1.15050003E-02  -2.34989006E-32
  -1.14900004E-02  -2.63349497E-32
  -1.14749996E-02  -2.89513297E-32
  -1.14599997E-02  -3.12058632E-32
  -1.14449998E-02  -3.29389739E-32
  -1.14300000E-02  -3.39775320E-32
  -1.14150001E-02  -3.41362707E-32
  -1.14000002E-02  -3.32324890E-32
  -1.13850003E-02  -3.10865741E-32
  -1.13700004E-02  -2.75200037E-32
  -1.13549996E-02  -2.23815109E-32
  -1.13399997E-02  -1.55456718E-32
  -1.13249999E-02  -6.91480732E-33
  -1.13100000E-02   3.55666865E-33
  -1.12950001E-02   1.58581329E-32
  -1.12800002E-02   2.99135336E-32
  -1.12650003E-02   4.55712329E-32
  -1.12500004E-02   6.25986536E-32
  -1.12349996E-02   8.06738658E-32
  -1.12199998E-02   9.93846267E-32
  -1.12049999E-02   1.18232350E-31
  -1.11900000E-02   1.36624605E-31
  -1.11750001E-02   1.53894651E-31
  -1.11600002E-02   1.69332665E-31
  -1.11450003E-02   1.82209253E-31
  -1.11300005E-02   1.91787440E-31
  -1.11149997E-02   1.97363245E-31
  -1.10999998E-02   1.98314337E-31
  -1.10849999E-02   1.94128284E-31
  -1.10700000E-02   1.84451274E-31
  -1.10550001E-02   1.69132031E-31
  -1.10400002E-02   1.48262540E-31
  -1.10250004E-02   1.22214702E-31
  -1.10099996E-02   9.16686994E-32
  -1.09949997E-02   5.76279581E-32
  -1.09799998E-02   2.14215802E-32
  -1.09649999E-02  -1.53121275E-32
  -1.09500000E-02  -5.06593220E-32
  -1.09350001E-02  -8.24960525E-32
  -1.09200003E-02  -1.08569352E-31
  -1.09050004E-02  -1.26597462E-31
  -1.08899996E-02  -1.34416333E-31
  -1.08749997E-02  -1.30123581E-31
  -1.08599998E-02  -1.12250671E-31
  -1.08449999E-02  -7.99613340E-32
  -1.08300000E-02  -3.32392627E-32
  -1.08150002E-02   2.69205956E-32
  -1.08000003E-02   9.83401706E-32
  -1.07850004E-02   1.77506453E-31
  -1.07699996E-02   2.59448037E-31
  -1.07549997E-02   3.37675822E-31
  -1.07399998E-02   4.04198811E-31
  -1.07249999E-02   4.49612107E-31
  -1.07100001E-02   4.63273138E-31
  -1.06950002E-02   4.33586687E-31
  -1.06800003E-02   3.48398494E-31
  -1.06650004E-02   1.95505011E-31
  -1.06499996E-02  -3.67189876E-32
  -1.06349997E-02  -3.58599316E-31
  -1.06199998E-02  -7.78357252E-31
  -1.06050000E-02  -1.30123134E-30
  -1.05900001E-02  -1.92855741E-30
  -1.05750002E-02  -2.65685026E-30
  -1.05600003E-02  -3.47692797E-30
  -1.05450004E-02  -4.37312900E-30
  -1.05299996E-02  -5.32267265E-30
  -1.05149997E-02  -6.29522176E-30
  -1.04999999E-02  -7.25272040E-30
  -1.04850000E-02  -8.14954698E-30
  -1.04700001E-02  -8.93304838E-30
  -1.04550002E-02  -9.54447547E-30
  -1.04400003E-02  -9.92037787E-30
  -1.04250005E-02  -9.99448104E-30
  -1.04099996E-02  -9.70001989E-30
  -1.03949998E-02  -8.97253145E-30
  -1.03799999E-02  -7.75304089E-30
  -1.03650000E-02  -5.99159702E-30
  -1.03500001E-02  -3.65102903E-30
  -1.03350002E-02  -7.10791200E-31
  -1.03200004E-02   2.82923416E-30
  -1.03049995E-02   6.94514186E-30
  -1.02899997E-02   1.15858544E-29
  -1.02749998E-02   1.66706013E-29
  -1.02599999E-02   2.20872522E-29
  -1.02450000E-02   2.76916948E-29
  -1.02300001E-02   3.33084859E-29
  -1.02150002E-02   3.87329519E-29
  -1.02000004E-02   4.37348507E-29
  -1.01849996E-02   4.80637153E-29
  -1.01699997E-02   5.14558768E-29
  -1.01549998E-02   5.36431735E-29
  -1.01399999E-02   5.43631884E-29
  -1.01250000E-02   5.33708049E-29
  -1.01100001E-02   5.04508333E-29
  -1.00950003E-02   4.54312791E-29
  -1.00800004E-02   3.81967760E-29
  -1.00649996E-02   2.87016555E-29
  -1.00499997E-02   1.69820152E-29
  -1.00349998E-02   3.16612125E-30
  -1.00199999E-02  -1.25175493E-29
  -1.00050000E-02  -2.97353051E-29
  -9.99000017E-03  -4.80469688E-29
  -9.97500028E-03  -6.69088947E-29
  -9.96000040E-03  -8.56817825E-29
  -9.94499959E-03  -1.03643619E-28
  -9.92999971E-03  -1.20007969E-28
  -9.91499983E-03  -1.33947549E-28
  -9.89999995E-03  -1.44622786E-28
  -9.88500006E-03  -1.51214871E-28
  -9.87000018E-03  -1.52962568E-28
  -9.85500030E-03  -1.49201660E-28
  -9.84000042E-03  -1.39405634E-28
  -9.82499961E-03  -1.23226198E-28
  -9.80999973E-03  -1.00531774E-28
  -9.79499985E-03  -7.14420282E-29
  -9.77999996E-03  -3.63565319E-29
  -9.76500008E-03   4.02459775E-30
  -9.75000020E-03   4.86899044E-29
  -9.73500032E-03   9.63174718E-29
  -9.72000044E-03   1.45288977E-28
  -9.70499963E-03   1.93718111E-28
  -9.68999974E-03   2.39493890E-28
  -9.67499986E-03   2.80339157E-28
  -9.65999998E-03   3.13883536E-28
  -9.64500010E-03   3.37749877E-28
  -9.63000022E-03   3.49652172E-28
  -9.61500034E-03   3.47502040E-28
  -9.60000046E-03   3.29520932E-28
  -9.58499964E-03   2.94353307E-28
  -9.56999976E-03   2.41177105E-28
  -9.55499988E-03   1.69805596E-28
  -9.54000000E-03   8.07759755E-29
  -9.52500012E-03  -2.45808320E-29
  -9.51000024E-03  -1.44094491E-28
  -9.49500035E-03  -2.74738240E-28
  -9.47999954E-03  -4.12644887E-28
  -9.46499966E-03  -5.53158906E-28
  -9.44999978E-03  -6.90926934E-28
  -9.43499990E-03  -8.20027363E-28
  -9.42000002E-03  -9.34137845E-28
  -9.40500014E-03  -1.02673945E-27
  -9.39000025E-03  -1.09135093E-27
  -9.37500037E-03  -1.12178967E-27
  -9.35999956E-03  -1.11245036E-27
  -9.34499968E-03  -1.05859048E-27
  -9.32999980E-03  -9.56615277E-28
  -9.31499992E-03  -8.04347260E-28
  -9.30000003E-03  -6.01269069E-28
  -9.28500015E-03  -3.48727413E-28
  -9.27000027E-03  -5.00850751E-29
  -9.25500039E-03   2.89190707E-28
  -9.23999958E-03   6.61513025E-28
  -9.22499970E-03   1.05724155E-27
  -9.20999981E-03   1.46483593E-27
  -9.19499993E-03   1.87109853E-27
  -9.18000005E-03   2.26150571E-27
  -9.16500017E-03   2.62062250E-27
  -9.15000029E-03   2.93259369E-27
  -9.13500041E-03   3.18169520E-27
  -9.11999959E-03   3.35293426E-27
  -9.10499971E-03   3.43267353E-27
  -9.08999983E-03   3.40926116E-27
  -9.07499995E-03   3.27363756E-27
  -9.06000007E-03   3.01989590E-27
  -9.04500019E-03   2.64576860E-27
  -9.03000031E-03   2.15301480E-27
  -9.01500043E-03   1.54768231E-27
  -8.99999961E-03   8.40226805E-28
  -8.98499973E-03   4.54697164E-29
  -8.96999985E-03  -8.17615039E-28
  -8.95499997E-03  -1.72629094E-27
  -8.94000009E-03  -2.65462249E-27
  -8.92500021E-03  -3.57420126E-27
  -8.91000032E-03  -4.45501955E-27
  -8.89500044E-03  -5.26646275E-27
  -8.87999963E-03  -5.97839084E-27
  -8.86499975E-03  -6.56226424E-27
  -8.84999987E-03  -6.99228280E-27
  -8.83499999E-03  -7.24647165E-27
  -8.82000010E-03  -7.30768772E-27
  -8.80500022E-03  -7.16447403E-27
  -8.79000034E-03  -6.81173919E-27
  -8.77500046E-03  -6.25120575E-27
  -8.75999965E-03  -5.49160396E-27
  -8.74499977E-03  -4.54858045E-27
  -8.72999988E-03  -3.44431809E-27
  -8.71500000E-03  -2.20686072E-27
  -8.70000012E-03  -8.69163902E-28
  -8.68500024E-03   5.32102136E-28
  -8.67000036E-03   1.95795200E-27
  -8.65499955E-03   3.36863058E-27
  -8.63999967E-03   4.72523599E-27
  -8.62499978E-03   5.99134080E-27
  -8.60999990E-03   7.13453815E-27
  -8.59500002E-03   8.12780724E-27
  -8.58000014E-03   8.95063693E-27
  -8.56500026E-03   9.58982226E-27
  -8.55000038E-03   1.00398605E-26
  -8.53499956E-03   1.03029148E-26
  -8.51999968E-03   1.03882974E-26
  -8.50499980E-03   1.03114859E-26
  -8.48999992E-03   1.00926749E-26
  -8.47500004E-03   9.75492222E-27
  -8.46000016E-03   9.32196855E-27
  -8.44500028E-03   8.81582645E-27
  -8.43000039E-03   8.25427304E-27
  -8.41499958E-03   7.64840322E-27
  -8.39999970E-03   7.00039558E-27
  -8.38499982E-03   6.30167359E-27
  -8.36999994E-03   5.53163596E-27
  -8.35500006E-03   4.65711431E-27
  -8.34000017E-03   3.63270408E-27
  -8.32500029E-03   2.40208088E-27
  -8.31000041E-03   9.00381686E-28
  -8.29499960E-03  -9.42334603E-28
  -8.27999972E-03  -3.19657243E-27
  -8.26499984E-03  -5.92793148E-27
  -8.24999996E-03  -9.19084507E-27
  -8.23500007E-03  -1.30217501E-26
  -8.22000019E-03  -1.74319941E-26
  -8.20500031E-03  -2.24008132E-26
  -8.19000043E-03  -2.78688072E-26
  -8.17499962E-03  -3.37323055E-26
  -8.15999974E-03  -3.98391305E-26
  -8.14499985E-03  -4.59861442E-26
  -8.12999997E-03  -5.19190715E-26
  -8.11500009E-03  -5.73349098E-26
  -8.10000021E-03  -6.18872782E-26
  -8.08500033E-03  -6.51948610E-26
  -8.07000045E-03  -6.68530959E-26
  -8.05499963E-03  -6.64489465E-26
  -8.03999975E-03  -6.35786391E-26
  -8.02499987E-03  -5.78678716E-26
  -8.00999999E-03  -4.89940831E-26
  -7.99500011E-03  -3.67098240E-26
  -7.98000023E-03  -2.08665758E-26
  -7.96500035E-03  -1.43781658E-27
  -7.95000046E-03   2.14597668E-26
  -7.93499965E-03   4.75480703E-26
  -7.91999977E-03   7.63737041E-26
  -7.90499989E-03   1.07299628E-25
  -7.89000001E-03   1.39503457E-25
  -7.87500013E-03   1.71983375E-25
  -7.86000025E-03   2.03572508E-25
  -7.84500036E-03   2.32962310E-25
  -7.82999955E-03   2.58734988E-25
  -7.81499967E-03   2.79405066E-25
  -7.79999979E-03   2.93469174E-25
  -7.78499991E-03   2.99463531E-25
  -7.77000003E-03   2.96027228E-25
  -7.75500014E-03   2.81969579E-25
  -7.73999980E-03   2.56339538E-25
  -7.72499992E-03   2.18494084E-25
  -7.71000003E-03   1.68163131E-25
  -7.69500015E-03   1.05507545E-25
  -7.67999981E-03   3.11672904E-26
  -7.66499992E-03  -5.37034872E-26
  -7.65000004E-03  -1.47417433E-25
  -7.63500016E-03  -2.47753650E-25
  -7.61999981E-03  -3.51978076E-25
  -7.60499993E-03  -4.56886444E-25
  -7.59000005E-03  -5.58870283E-25
  -7.57500017E-03  -6.54006317E-25
  -7.55999982E-03  -7.38168013E-25
  -7.54499994E-03  -8.07157597E-25
  -7.53000006E-03  -8.56855390E-25
  -7.51500018E-03  -8.83382219E-25
  -7.49999983E-03  -8.83271187E-25
  -7.48499995E-03  -8.53640881E-25
  -7.47000007E-03  -7.92365666E-25
  -7.45500019E-03  -6.98235233E-25
  -7.43999984E-03  -5.71095359E-25
  -7.42499996E-03  -4.11963922E-25
  -7.41000008E-03  -2.23114245E-25
  -7.39500020E-03  -8.11968829E-27
  -7.37999985E-03   2.28146364E-25
  -7.36499997E-03   4.79559145E-25
  -7.35000009E-03   7.38843130E-25
  -7.33500021E-03   9.97725536E-25
  -7.31999986E-03   1.24714166E-24
  -7.30499998E-03   1.47749013E-24
  -7.29000010E-03   1.67893168E-24
  -7.27500021E-03   1.84172595E-24
  -7.25999987E-03   1.95659573E-24
  -7.24499999E-03   2.01510732E-24
  -7.23000010E-03   2.01005644E-24
  -7.21500022E-03   1.93584159E-24
  -7.19999988E-03   1.78881468E-24
  -7.18499999E-03   1.56758968E-24
  -7.17000011E-03   1.27329694E-24
  -7.15500023E-03   9.09766165E-25
  -7.13999989E-03   4.83628533E-25
  -7.12500000E-03   4.32382636E-27
  -7.11000012E-03  -5.15992833E-25
  -7.09499978E-03  -1.06265224E-24
  -7.07999989E-03  -1.61877985E-24
  -7.06500001E-03  -2.16571072E-24
  -7.05000013E-03  -2.68350384E-24
  -7.03499978E-03  -3.15154606E-24
  -7.01999990E-03  -3.54922760E-24
  -7.00500002E-03  -3.85667549E-24
  -6.99000014E-03  -4.05551774E-24
  -6.97499979E-03  -4.12965686E-24
  -6.95999991E-03  -4.06602261E-24
  -6.94500003E-03  -3.85527763E-24
  -6.93000015E-03  -3.49244421E-24
  -6.91499980E-03  -2.97742809E-24
  -6.89999992E-03  -2.31540773E-24
  -6.88500004E-03  -1.51706955E-24
  -6.87000016E-03  -5.98666442E-25
  -6.85499981E-03   4.18114571E-25
  -6.83999993E-03   1.50648225E-24
  -6.82500005E-03   2.63507606E-24
  -6.81000017E-03   3.76869581E-24
  -6.79499982E-03   4.86922067E-24
  -6.77999994E-03   5.89669030E-24
  -6.76500006E-03   6.81053360E-24
  -6.75000018E-03   7.57089690E-24
  -6.73499983E-03   8.14004584E-24
  -6.71999995E-03   8.48379593E-24
  -6.70500007E-03   8.57290960E-24
  -6.69000018E-03   8.38443180E-24
  -6.67499984E-03   7.90290321E-24
  -6.65999996E-03   7.12139212E-24
  -6.64500007E-03   6.04232744E-24
  -6.63000019E-03   4.67805443E-24
  -6.61499985E-03   3.05111243E-24
  -6.59999996E-03   1.19418454E-24
  -6.58500008E-03  -8.50287729E-25
  -6.57000020E-03  -3.03083397E-24
  -6.55499985E-03  -5.28802692E-24
  -6.53999997E-03  -7.55588172E-24
  -6.52500009E-03  -9.76354999E-24
  -6.51000021E-03  -1.18372728E-23
  -6.49499986E-03  -1.37025534E-23
  -6.47999998E-03  -1.52864725E-23
  -6.46500010E-03  -1.65200900E-23
  -6.45000022E-03  -1.73408698E-23
  -6.43499987E-03  -1.76950226E-23
  -6.41999999E-03  -1.75397258E-23
  -6.40500011E-03  -1.68451054E-23
  -6.39000023E-03  -1.55959379E-23
  -6.37499988E-03  -1.37929726E-23
  -6.36000000E-03  -1.14538422E-23
  -6.34500012E-03  -8.61349413E-24
  -6.32999977E-03  -5.32411257E-24
  -6.31499989E-03  -1.65450361E-24
  -6.30000001E-03   2.31105933E-24
  -6.28500013E-03   6.47452066E-24
  -6.26999978E-03   1.07262324E-23
  -6.25499990E-03   1.49476125E-23
  -6.24000002E-03   1.90141968E-23
  -6.22500014E-03   2.27990331E-23
  -6.20999979E-03   2.61763044E-23
  -6.19499991E-03   2.90251146E-23
  -6.18000003E-03   3.12332909E-23
  -6.16500014E-03   3.27011276E-23
  -6.14999980E-03   3.33449485E-23
  -6.13499992E-03   3.31003417E-23
  -6.12000003E-03   3.19250115E-23
  -6.10500015E-03   2.98011045E-23
  -6.08999981E-03   2.67369258E-23
  -6.07499992E-03   2.27679867E-23
  -6.06000004E-03   1.79573188E-23
  -6.04500016E-03   1.23949809E-23
  -6.02999981E-03   6.19678206E-24
  -6.01499993E-03  -4.97792235E-25
  -6.00000005E-03  -7.52844120E-24
  -5.98500017E-03  -1.47176280E-23
  -5.96999982E-03  -2.18748163E-23
  -5.95499994E-03  -2.88012769E-23
  -5.94000006E-03  -3.52953314E-23
  -5.92500018E-03  -4.11579311E-23
  -5.90999983E-03  -4.61983925E-23
  -5.89499995E-03  -5.02401939E-23
  -5.88000007E-03  -5.31265634E-23
  -5.86500019E-03  -5.47258432E-23
  -5.84999984E-03  -5.49362798E-23
  -5.83499996E-03  -5.36902960E-23
  -5.82000008E-03  -5.09578933E-23
  -5.80500020E-03  -4.67491689E-23
  -5.78999985E-03  -4.11158437E-23
  -5.77499997E-03  -3.41516314E-23
  -5.76000009E-03  -2.59914333E-23
  -5.74500021E-03  -1.68093716E-23
  -5.72999986E-03  -6.81555548E-24
  -5.71499998E-03   3.74828087E-24
  -5.70000010E-03   1.46142604E-23
  -5.68500021E-03   2.54948406E-23
  -5.66999987E-03   3.60901434E-23
  -5.65499999E-03   4.60959889E-23
  -5.64000010E-03   5.52124000E-23
  -5.62500022E-03   6.31523797E-23
  -5.60999988E-03   6.96507444E-23
  -5.59500000E-03   7.44726725E-23
  -5.58000011E-03   7.74218448E-23
  -5.56500023E-03   7.83477718E-23
  -5.54999989E-03   7.71521175E-23
  -5.53500000E-03   7.37938672E-23
  -5.52000012E-03   6.82929318E-23
  -5.50499978E-03   6.07322554E-23
  -5.48999989E-03   5.12580201E-23
  -5.47500001E-03   4.00780909E-23
  -5.46000013E-03   2.74584716E-23
  -5.44499978E-03   1.37179141E-23
  -5.42999990E-03  -7.79362527E-25
  -5.41500002E-03  -1.56326183E-23
  -5.40000014E-03  -3.04151033E-23
  -5.38499979E-03  -4.46858432E-23
  -5.36999991E-03  -5.80024117E-23
  -5.35500003E-03  -6.99343746E-23
  -5.34000015E-03  -8.00769928E-23
  -5.32499980E-03  -8.80647964E-23
  -5.30999992E-03  -9.35846139E-23
  -5.29500004E-03  -9.63875819E-23
  -5.28000016E-03  -9.62997659E-23
  -5.26499981E-03  -9.32309265E-23
  -5.24999993E-03  -8.71811081E-23
  -5.23500005E-03  -7.82447024E-23
  -5.22000017E-03  -6.66117619E-23
  -5.20499982E-03  -5.25662797E-23
  -5.18999994E-03  -3.64814563E-23
  -5.17500006E-03  -1.88118603E-23
  -5.16000018E-03  -8.25966765E-26
  -5.14499983E-03   1.91243518E-23
  -5.12999995E-03   3.81863015E-23
  -5.11500007E-03   5.64582007E-23
  -5.10000018E-03   7.32926313E-23
  -5.08499984E-03   8.80609278E-23
  -5.06999996E-03   1.00174777E-22
  -5.05500007E-03   1.09107718E-22
  -5.04000019E-03   1.14415628E-22
  -5.02499985E-03   1.15755783E-22
  -5.00999996E-03   1.12903451E-22
  -4.99500008E-03   1.05765649E-22
  -4.98000020E-03   9.43912337E-23
  -4.96499985E-03   7.89769042E-23
  -4.94999997E-03   5.98686546E-23
  -4.93500009E-03   3.75583619E-23
  -4.92000021E-03   1.26754139E-23
  -4.90499986E-03  -1.40267752E-23
  -4.88999998E-03  -4.16890585E-23
  -4.87500010E-03  -6.93694303E-23
  -4.86000022E-03  -9.60699928E-23
  -4.84499987E-03  -1.20767297E-22
  -4.82999999E-03  -1.42445358E-22
  -4.81500011E-03  -1.60130345E-22
  -4.80000023E-03  -1.72925997E-22
  -4.78499988E-03  -1.80048502E-22
  -4.77000000E-03  -1.80859817E-22
  -4.75500012E-03  -1.74898149E-22
  -4.73999977E-03  -1.61904525E-22
  -4.72499989E-03  -1.41844196E-22
  -4.71000001E-03  -1.14922102E-22
  -4.69500013E-03  -8.15912902E-23
  -4.67999978E-03  -4.25537415E-23
  -4.66499990E-03   1.24687739E-24
  -4.65000002E-03   4.86408700E-23
  -4.63500014E-03   9.82565133E-23
  -4.61999979E-03   1.48552088E-22
  -4.60499991E-03   1.97855579E-22
  -4.59000003E-03   2.44410919E-22
  -4.57500014E-03   2.86430068E-22
  -4.55999980E-03   3.22149135E-22
  -4.54499992E-03   3.49887403E-22
  -4.53000003E-03   3.68107489E-22
  -4.51500015E-03   3.75474466E-22
  -4.49999981E-03   3.70912300E-22
  -4.48499992E-03   3.53655532E-22
  -4.47000004E-03   3.23294409E-22
  -4.45500016E-03   2.79811412E-22
  -4.43999982E-03   2.23607609E-22
  -4.42499993E-03   1.55517667E-22
  -4.41000005E-03   7.68117019E-23
  -4.39500017E-03  -1.08160545E-23
  -4.37999982E-03  -1.05272806E-22
  -4.36499994E-03  -2.04106728E-22
  -4.35000006E-03  -3.04560111E-22
  -4.33500018E-03  -4.03635336E-22
  -4.31999983E-03  -4.98172250E-22
  -4.30499995E-03  -5.84935287E-22
  -4.29000007E-03  -6.60708091E-22
  -4.27500019E-03  -7.22393379E-22
  -4.25999984E-03  -7.67115052E-22
  -4.24499996E-03  -7.92319574E-22
  -4.23000008E-03  -7.95873462E-22
  -4.21500020E-03  -7.76153808E-22
  -4.19999985E-03  -7.32128452E-22
  -4.18499997E-03  -6.63422883E-22
  -4.17000009E-03  -5.70371375E-22
  -4.15500021E-03  -4.54049303E-22
  -4.13999986E-03  -3.16285412E-22
  -4.12499998E-03  -1.59651778E-22
  -4.11000010E-03   1.25686565E-23
  -4.09500021E-03   1.96437775E-22
  -4.07999987E-03   3.87440463E-22
  -4.06499999E-03   5.80584158E-22
  -4.05000011E-03   7.70517680E-22
  -4.03500022E-03   9.51667458E-22
  -4.01999988E-03   1.11838696E-21
  -4.00500000E-03   1.26511630E-21
  -3.99000011E-03   1.38654767E-21
  -3.97500023E-03   1.47779149E-21
  -3.95999989E-03   1.53453878E-21
  -3.94500000E-03   1.55321497E-21
  -3.93000012E-03   1.53111959E-21
  -3.91499978E-03   1.46654710E-21
  -3.89999989E-03   1.35888548E-21
  -3.88500001E-03   1.20868707E-21
  -3.86999990E-03   1.01770902E-21
  -3.85500002E-03   7.88921843E-22
  -3.83999990E-03   5.26481830E-22
  -3.82500002E-03   2.35669785E-22
  -3.80999991E-03  -7.72063658E-23
  -3.79500003E-03  -4.04942068E-22
  -3.77999991E-03  -7.39597816E-22
  -3.76500003E-03  -1.07268897E-21
  -3.74999992E-03  -1.39539846E-21
  -3.73500003E-03  -1.69880764E-21
  -3.71999992E-03  -1.97413863E-21
  -3.70500004E-03  -2.21300379E-21
  -3.68999992E-03  -2.40765054E-21
  -3.67500004E-03  -2.55120030E-21
  -3.65999993E-03  -2.63786867E-21
  -3.64500005E-03  -2.66316332E-21
  -3.62999993E-03  -2.62405258E-21
  -3.61500005E-03  -2.51909778E-21
  -3.59999994E-03  -2.34854388E-21
  -3.58500006E-03  -2.11436594E-21
  -3.56999994E-03  -1.82026829E-21
  -3.55500006E-03  -1.47163357E-21
  -3.53999995E-03  -1.07542375E-21
  -3.52500007E-03  -6.40031655E-22
  -3.50999995E-03  -1.75089382E-22
  -3.49500007E-03   3.08764147E-22
  -3.47999996E-03   8.00150729E-22
  -3.46500007E-03   1.28724742E-21
  -3.44999996E-03   1.75810110E-21
  -3.43500008E-03   2.20095393E-21
  -3.41999996E-03   2.60456900E-21
  -3.40500008E-03   2.95854939E-21
  -3.38999997E-03   3.25363679E-21
  -3.37500009E-03   3.48198448E-21
  -3.35999997E-03   3.63739144E-21
  -3.34500009E-03   3.71549417E-21
  -3.32999998E-03   3.71390605E-21
  -3.31500010E-03   3.63229870E-21
  -3.29999998E-03   3.47242505E-21
  -3.28500010E-03   3.23807828E-21
  -3.26999999E-03   2.93499070E-21
  -3.25500011E-03   2.57066873E-21
  -3.23999999E-03   2.15417481E-21
  -3.22500011E-03   1.69585778E-21
  -3.21000000E-03   1.20703958E-21
  -3.19500011E-03   6.99670499E-22
  -3.18000000E-03   1.85960516E-22
  -3.16499989E-03  -3.21999996E-22
  -3.15000000E-03  -8.12618165E-22
  -3.13499989E-03  -1.27516273E-21
  -3.12000001E-03  -1.70010072E-21
  -3.10499989E-03  -2.07939615E-21
  -3.09000001E-03  -2.40675994E-21
  -3.07499990E-03  -2.67783729E-21
  -3.06000002E-03  -2.89033102E-21
  -3.04499990E-03  -3.04404970E-21
  -3.03000002E-03  -3.14087850E-21
  -3.01499991E-03  -3.18467323E-21
  -3.00000003E-03  -3.18107632E-21
  -2.98499991E-03  -3.13726221E-21
  -2.97000003E-03  -3.06161537E-21
  -2.95499992E-03  -2.96335516E-21
  -2.94000003E-03  -2.85211471E-21
  -2.92499992E-03  -2.73749163E-21
  -2.91000004E-03  -2.62858349E-21
  -2.89499993E-03  -2.53352578E-21
  -2.88000004E-03  -2.45905024E-21
  -2.86499993E-03  -2.41008018E-21
  -2.85000005E-03  -2.38938107E-21
  -2.83499993E-03  -2.39728049E-21
  -2.82000005E-03  -2.43147378E-21
  -2.80499994E-03  -2.48692639E-21
  -2.79000006E-03  -2.55588247E-21
  -2.77499994E-03  -2.62798633E-21
  -2.76000006E-03  -2.69051783E-21
  -2.74499995E-03  -2.72874303E-21
  -2.73000007E-03  -2.72637114E-21
  -2.71499995E-03  -2.66611378E-21
  -2.70000007E-03  -2.53032691E-21
  -2.68499996E-03  -2.30172436E-21
  -2.67000007E-03  -1.96413875E-21
  -2.65499996E-03  -1.50330817E-21
  -2.64000008E-03  -9.07663711E-22
  -2.62499996E-03  -1.69090114E-22
  -2.61000008E-03   7.16369309E-22
  -2.59499997E-03   1.74788857E-21
  -2.58000009E-03   2.91934495E-21
  -2.56499997E-03   4.21893778E-21
  -2.55000009E-03   5.62896649E-21
  -2.53499998E-03   7.12577889E-21
  -2.52000010E-03   8.67991232E-21
  -2.50499998E-03   1.02564313E-20
  -2.49000010E-03   1.18154673E-20
  -2.47499999E-03   1.33129566E-20
  -2.46000011E-03   1.47015715E-20
  -2.44499999E-03   1.59318249E-20
  -2.43000011E-03   1.69533284E-20
  -2.41500000E-03   1.77161779E-20
  -2.40000011E-03   1.81724310E-20
  -2.38500000E-03   1.82776478E-20
  -2.36999989E-03   1.79924369E-20
  -2.35500000E-03   1.72839809E-20
  -2.33999989E-03   1.61274774E-20
  -2.32500001E-03   1.45074716E-20
  -2.30999989E-03   1.24190110E-20
  -2.29500001E-03   9.86859348E-21
  -2.27999990E-03   6.87486852E-21
  -2.26500002E-03   3.46905291E-21
  -2.24999990E-03  -3.04964942E-22
  -2.23500002E-03  -4.39085644E-21
  -2.21999991E-03  -8.72042721E-21
  -2.20500003E-03  -1.32145431E-20
  -2.18999991E-03  -1.77843961E-20
  -2.17500003E-03  -2.23331091E-20
  -2.15999992E-03  -2.67576288E-20