  -1.49999997E-02   0.00000000    
  -1.49849998E-02   0.00000000    
  -1.49699999E-02   0.00000000    
  -1.49550000E-02   0.00000000    
  -1.49400001E-02   0.00000000    
  -1.49250003E-02   0.00000000    
  -1.49100004E-02   0.00000000    
  -1.48949996E-02   0.00000000    
  -1.48799997E-02   0.00000000    
  -1.48649998E-02   0.00000000    
  -1.48499999E-02   0.00000000    
  -1.48350000E-02   0.00000000    
  -1.48200002E-02   0.00000000    
  -1.48050003E-02   0.00000000    
  -1.47900004E-02   0.00000000    
  -1.47749996E-02   0.00000000    
  -1.47599997E-02   0.00000000    
  -1.47449998E-02   0.00000000    
  -1.47299999E-02   0.00000000    
  -1.47150001E-02   0.00000000    
  -1.47000002E-02   0.00000000    
  -1.46850003E-02   0.00000000    
  -1.46700004E-02   0.00000000    
  -1.46549996E-02   0.00000000    
  -1.46399997E-02   0.00000000    
  -1.46249998E-02   0.00000000    
  -1.46100000E-02   0.00000000    
  -1.45950001E-02   0.00000000    
  -1.45800002E-02   0.00000000    
  -1.45650003E-02   0.00000000    
  -1.45500004E-02   0.00000000    
  -1.45349996E-02   0.00000000    
  -1.45199997E-02   0.00000000    
  -1.45049999E-02   0.00000000    
  -1.44900000E-02   0.00000000    
  -1.44750001E-02   0.00000000    
  -1.44600002E-02   0.00000000    
  -1.44450003E-02   0.00000000    
  -1.44300004E-02   0.00000000    
  -1.44149996E-02   0.00000000    
  -1.43999998E-02   0.00000000    
  -1.43849999E-02   0.00000000    
  -1.43700000E-02   0.00000000    
  -1.43550001E-02   0.00000000    
  -1.43400002E-02   0.00000000    
  -1.43250003E-02   0.00000000    
  -1.43100005E-02   0.00000000    
  -1.42949997E-02   0.00000000    
  -1.42799998E-02   0.00000000    
  -1.42649999E-02   0.00000000    
  -1.42500000E-02   0.00000000    
  -1.42350001E-02   0.00000000    
  -1.42200002E-02   0.00000000    
  -1.42050004E-02   0.00000000    
  -1.41899996E-02   0.00000000    
  -1.41749997E-02   0.00000000    
  -1.41599998E-02   0.00000000    
  -1.41449999E-02   0.00000000    
  -1.41300000E-02   0.00000000    
  -1.41150001E-02   0.00000000    
  -1.41000003E-02   0.00000000    
  -1.40850004E-02   0.00000000    
  -1.40699996E-02   0.00000000    
  -1.40549997E-02   0.00000000    
  -1.40399998E-02   0.00000000    
  -1.40249999E-02   0.00000000    
  -1.40100000E-02   0.00000000    
  -1.39950002E-02   0.00000000    
  -1.39800003E-02   0.00000000    
  -1.39650004E-02   0.00000000    
  -1.39499996E-02   0.00000000    
  -1.39349997E-02   0.00000000    
  -1.39199998E-02   0.00000000    
  -1.39049999E-02   0.00000000    
  -1.38900001E-02   0.00000000    
  -1.38750002E-02   0.00000000    
  -1.38600003E-02   0.00000000    
  -1.38450004E-02   0.00000000    
  -1.38299996E-02   0.00000000    
  -1.38149997E-02   0.00000000    
  -1.37999998E-02   0.00000000    
  -1.37850000E-02   0.00000000    
  -1.37700001E-02   0.00000000    
  -1.37550002E-02   0.00000000    
  -1.37400003E-02   0.00000000    
  -1.37250004E-02   0.00000000    
  -1.37099996E-02   0.00000000    
  -1.36949997E-02   0.00000000    
  -1.36799999E-02   0.00000000    
  -1.36650000E-02   0.00000000    
  -1.36500001E-02   0.00000000    
  -1.36350002E-02   0.00000000    
  -1.36200003E-02   0.00000000    
  -1.36050005E-02   0.00000000    
  -1.35899996E-02   0.00000000    
  -1.35749998E-02   0.00000000    
  -1.35599999E-02   0.00000000    
  -1.35450000E-02   0.00000000    
  -1.35300001E-02   0.00000000    
  -1.35150002E-02   0.00000000    
  -1.35000004E-02   0.00000000    
  -1.34849995E-02   0.00000000    
  -1.34699997E-02   0.00000000    
  -1.34549998E-02   0.00000000    
  -1.34399999E-02   0.00000000    
  -1.34250000E-02   0.00000000    
  -1.34100001E-02   0.00000000    
  -1.33950002E-02   0.00000000    
  -1.33800004E-02   0.00000000    
  -1.33649996E-02   0.00000000    
  -1.33499997E-02   0.00000000    
  -1.33349998E-02   0.00000000    
  -1.33199999E-02   0.00000000    
  -1.33050000E-02   0.00000000    
  -1.32900001E-02   0.00000000    
  -1.32750003E-02   0.00000000    
  -1.32600004E-02   0.00000000    
  -1.32449996E-02   0.00000000    
  -1.32299997E-02   0.00000000    
  -1.32149998E-02   0.00000000    
  -1.31999999E-02   0.00000000    
  -1.31850000E-02   0.00000000    
  -1.31700002E-02   0.00000000    
  -1.31550003E-02   0.00000000    
  -1.31400004E-02   0.00000000    
  -1.31249996E-02   0.00000000    
  -1.31099997E-02   0.00000000    
  -1.30949998E-02   0.00000000    
  -1.30799999E-02   0.00000000    
  -1.30650001E-02   0.00000000    
  -1.30500002E-02   0.00000000    
  -1.30350003E-02   0.00000000    
  -1.30200004E-02   0.00000000    
  -1.30049996E-02   0.00000000    
  -1.29899997E-02   0.00000000    
  -1.29749998E-02   0.00000000    
  -1.29600000E-02   0.00000000    
  -1.29450001E-02   0.00000000    
  -1.29300002E-02   0.00000000    
  -1.29150003E-02   0.00000000    
  -1.29000004E-02   0.00000000    
  -1.28849996E-02   0.00000000    
  -1.28699997E-02   0.00000000    
  -1.28549999E-02   0.00000000    
  -1.28400000E-02   0.00000000    
  -1.28250001E-02   0.00000000    
  -1.28100002E-02   0.00000000    
  -1.27950003E-02   0.00000000    
  -1.27800005E-02   0.00000000    
  -1.27649996E-02   0.00000000    
  -1.27499998E-02   0.00000000    
  -1.27349999E-02   0.00000000    
  -1.27200000E-02   0.00000000    
  -1.27050001E-02   0.00000000    
  -1.26900002E-02   0.00000000    
  -1.26750004E-02   0.00000000    
  -1.26599995E-02   0.00000000    
  -1.26449997E-02   0.00000000    
  -1.26299998E-02   0.00000000    
  -1.26149999E-02   0.00000000    
  -1.26000000E-02   0.00000000    
  -1.25850001E-02   0.00000000    
  -1.25700003E-02   0.00000000    
  -1.25550004E-02   0.00000000    
  -1.25399996E-02   0.00000000    
  -1.25249997E-02   0.00000000    
  -1.25099998E-02   0.00000000    
  -1.24949999E-02   0.00000000    
  -1.24800000E-02   0.00000000    
  -1.24650002E-02   0.00000000    
  -1.24500003E-02   0.00000000    
  -1.24350004E-02   0.00000000    
  -1.24199996E-02   0.00000000    
  -1.24049997E-02   0.00000000    
  -1.23899998E-02   0.00000000    
  -1.23749999E-02   0.00000000    
  -1.23600001E-02   0.00000000    
  -1.23450002E-02   0.00000000    
  -1.23300003E-02   0.00000000    
  -1.23150004E-02   0.00000000    
  -1.22999996E-02   0.00000000    
  -1.22849997E-02   0.00000000    
  -1.22699998E-02   0.00000000    
  -1.22550000E-02   0.00000000    
  -1.22400001E-02   0.00000000    
  -1.22250002E-02   0.00000000    
  -1.22100003E-02   0.00000000    
  -1.21950004E-02   0.00000000    
  -1.21799996E-02   0.00000000    
  -1.21649997E-02   0.00000000    
  -1.21499998E-02   0.00000000    
  -1.21350000E-02   0.00000000    
  -1.21200001E-02   0.00000000    
  -1.21050002E-02   0.00000000    
  -1.20900003E-02   0.00000000    
  -1.20750004E-02   0.00000000    
  -1.20599996E-02   0.00000000    
  -1.20449997E-02   0.00000000    
  -1.20299999E-02   0.00000000    
  -1.20150000E-02   0.00000000    
  -1.20000001E-02   0.00000000    
  -1.19850002E-02   0.00000000    
  -1.19700003E-02   0.00000000    
  -1.19550005E-02   0.00000000    
  -1.19399996E-02   0.00000000    
  -1.19249998E-02   0.00000000    
  -1.19099999E-02   0.00000000    
  -1.18950000E-02   0.00000000    
  -1.18800001E-02   0.00000000    
  -1.18650002E-02   0.00000000    
  -1.18500004E-02   0.00000000    
  -1.18349995E-02   0.00000000    
  -1.18199997E-02   0.00000000    
  -1.18049998E-02   0.00000000    
  -1.17899999E-02   0.00000000    
  -1.17750000E-02   0.00000000    
  -1.17600001E-02   0.00000000    
  -1.17450003E-02   0.00000000    
  -1.17300004E-02   0.00000000    
  -1.17149996E-02   0.00000000    
  -1.16999997E-02   0.00000000    
  -1.16849998E-02   0.00000000    
  -1.16699999E-02   0.00000000    
  -1.16550000E-02   0.00000000    
  -1.16400002E-02   0.00000000    
  -1.16250003E-02   0.00000000    
  -1.16100004E-02   0.00000000    
  -1.15949996E-02   0.00000000    
  -1.15799997E-02   0.00000000    
  -1.15649998E-02   0.00000000    
  -1.15499999E-02   0.00000000    
  -1.15350001E-02   0.00000000    
  -1.15200002E-02   0.00000000    
  -1.15050003E-02   0.00000000    
  -1.14900004E-02   0.00000000    
  -1.14749996E-02   0.00000000    
  -1.14599997E-02   0.00000000    
  -1.14449998E-02   0.00000000    
  -1.14300000E-02   0.00000000    
  -1.14150001E-02   0.00000000    
  -1.14000002E-02   0.00000000    
  -1.13850003E-02   0.00000000    
  -1.13700004E-02   0.00000000    
  -1.13549996E-02   0.00000000    
  -1.13399997E-02   0.00000000    
  -1.13249999E-02   0.00000000    
  -1.13100000E-02   0.00000000    
  -1.12950001E-02   0.00000000    
  -1.12800002E-02   0.00000000    
  -1.12650003E-02   0.00000000    
  -1.12500004E-02   0.00000000    
  -1.12349996E-02   0.00000000    
  -1.12199998E-02   0.00000000    
  -1.12049999E-02   0.00000000    
  -1.11900000E-02   0.00000000    
  -1.11750001E-02   0.00000000    
  -1.11600002E-02   0.00000000    
  -1.11450003E-02   0.00000000    
  -1.11300005E-02   0.00000000    
  -1.11149997E-02   0.00000000    
  -1.10999998E-02   0.00000000    
  -1.10849999E-02   0.00000000    
  -1.10700000E-02   0.00000000    
  -1.10550001E-02   0.00000000    
  -1.10400002E-02   0.00000000    
  -1.10250004E-02   0.00000000    
  -1.10099996E-02   0.00000000    
  -1.09949997E-02   0.00000000    
  -1.09799998E-02   0.00000000    
  -1.09649999E-02   0.00000000    
  -1.09500000E-02   0.00000000    
  -1.09350001E-02   0.00000000    
  -1.09200003E-02   0.00000000    
  -1.09050004E-02   0.00000000    
  -1.08899996E-02   0.00000000    
  -1.08749997E-02   0.00000000    
  -1.08599998E-02   0.00000000    
  -1.08449999E-02   0.00000000    
  -1.08300000E-02   0.00000000    
  -1.08150002E-02   0.00000000    
  -1.08000003E-02   0.00000000    
  -1.07850004E-02   0.00000000    
  -1.07699996E-02   0.00000000    
  -1.07549997E-02   0.00000000    
  -1.07399998E-02   0.00000000    
  -1.07249999E-02   0.00000000    
  -1.07100001E-02   0.00000000    
  -1.06950002E-02   0.00000000    
  -1.06800003E-02   0.00000000    
  -1.06650004E-02   0.00000000    
  -1.06499996E-02   0.00000000    
  -1.06349997E-02   0.00000000    
  -1.06199998E-02   0.00000000    
  -1.06050000E-02   0.00000000    
  -1.05900001E-02   0.00000000    
  -1.05750002E-02   0.00000000    
  -1.05600003E-02   0.00000000    
  -1.05450004E-02   0.00000000    
  -1.05299996E-02   0.00000000    
  -1.05149997E-02   0.00000000    
  -1.04999999E-02   0.00000000    
  -1.04850000E-02   0.00000000    
  -1.04700001E-02   0.00000000    
  -1.04550002E-02   0.00000000    
  -1.04400003E-02   0.00000000    
  -1.04250005E-02   0.00000000    
  -1.04099996E-02   0.00000000    
  -1.03949998E-02   0.00000000    
  -1.03799999E-02   0.00000000    
  -1.03650000E-02   0.00000000    
  -1.03500001E-02   0.00000000    
  -1.03350002E-02   0.00000000    
  -1.03200004E-02   0.00000000    
  -1.03049995E-02   0.00000000    
  -1.02899997E-02   0.00000000    
  -1.02749998E-02   0.00000000    
  -1.02599999E-02   0.00000000    
  -1.02450000E-02   0.00000000    
  -1.02300001E-02   0.00000000    
  -1.02150002E-02   0.00000000    
  -1.02000004E-02   0.00000000    
  -1.01849996E-02   0.00000000    
  -1.01699997E-02   0.00000000    
  -1.01549998E-02   0.00000000    
  -1.01399999E-02   0.00000000    
  -1.01250000E-02   0.00000000    
  -1.01100001E-02   0.00000000    
  -1.00950003E-02   0.00000000    
  -1.00800004E-02   0.00000000    
  -1.00649996E-02   0.00000000    
  -1.00499997E-02   0.00000000    
  -1.00349998E-02   0.00000000    
  -1.00199999E-02   0.00000000    
  -1.00050000E-02   0.00000000    
  -9.99000017E-03   0.00000000    
  -9.97500028E-03   0.00000000    
  -9.96000040E-03   0.00000000    
  -9.94499959E-03   0.00000000    
  -9.92999971E-03   0.00000000    
  -9.91499983E-03   0.00000000    
  -9.89999995E-03   0.00000000    
  -9.88500006E-03   0.00000000    
  -9.87000018E-03   0.00000000    
  -9.85500030E-03   0.00000000    
  -9.84000042E-03   0.00000000    
  -9.82499961E-03   0.00000000    
  -9.80999973E-03   0.00000000    
  -9.79499985E-03   0.00000000    
  -9.77999996E-03   0.00000000    
  -9.76500008E-03   0.00000000    
  -9.75000020E-03   0.00000000    
  -9.73500032E-03   0.00000000    
  -9.72000044E-03   0.00000000    
  -9.70499963E-03   0.00000000    
  -9.68999974E-03   0.00000000    
  -9.67499986E-03   0.00000000    
  -9.65999998E-03   0.00000000    
  -9.64500010E-03   0.00000000    
  -9.63000022E-03   0.00000000    
  -9.61500034E-03   0.00000000    
  -9.60000046E-03   0.00000000    
  -9.58499964E-03   0.00000000    
  -9.56999976E-03   0.00000000    
  -9.55499988E-03   0.00000000    
  -9.54000000E-03   0.00000000    
  -9.52500012E-03   0.00000000    
  -9.51000024E-03   0.00000000    
  -9.49500035E-03   0.00000000    
  -9.47999954E-03   0.00000000    
  -9.46499966E-03   0.00000000    
  -9.44999978E-03   0.00000000    
  -9.43499990E-03   0.00000000    
  -9.42000002E-03   0.00000000    
  -9.40500014E-03   0.00000000    
  -9.39000025E-03   0.00000000    
  -9.37500037E-03   0.00000000    
  -9.35999956E-03   0.00000000    
  -9.34499968E-03   0.00000000    
  -9.32999980E-03   0.00000000    
  -9.31499992E-03   0.00000000    
  -9.30000003E-03   0.00000000    
  -9.28500015E-03   0.00000000    
  -9.27000027E-03   0.00000000    
  -9.25500039E-03   0.00000000    
  -9.23999958E-03   0.00000000    
  -9.22499970E-03   0.00000000    
  -9.20999981E-03   0.00000000    
  -9.19499993E-03   0.00000000    
  -9.18000005E-03   0.00000000    
  -9.16500017E-03   0.00000000    
  -9.15000029E-03   0.00000000    
  -9.13500041E-03   0.00000000    
  -9.11999959E-03   0.00000000    
  -9.10499971E-03   0.00000000    
  -9.08999983E-03   0.00000000    
  -9.07499995E-03   0.00000000    
  -9.06000007E-03   0.00000000    
  -9.04500019E-03   0.00000000    
  -9.03000031E-03   0.00000000    
  -9.01500043E-03   0.00000000    
  -8.99999961E-03   0.00000000    
  -8.98499973E-03   0.00000000    
  -8.96999985E-03   0.00000000    
  -8.95499997E-03   0.00000000    
  -8.94000009E-03   0.00000000    
  -8.92500021E-03   0.00000000    
  -8.91000032E-03   0.00000000    
  -8.89500044E-03   0.00000000    
  -8.87999963E-03   0.00000000    
  -8.86499975E-03   0.00000000    
  -8.84999987E-03   0.00000000    
  -8.83499999E-03   0.00000000    
  -8.82000010E-03   0.00000000    
  -8.80500022E-03   0.00000000    
  -8.79000034E-03   0.00000000    
  -8.77500046E-03   0.00000000    
  -8.75999965E-03   0.00000000    
  -8.74499977E-03   0.00000000    
  -8.72999988E-03   0.00000000    
  -8.71500000E-03   0.00000000    
  -8.70000012E-03   0.00000000    
  -8.68500024E-03   0.00000000    
  -8.67000036E-03   0.00000000    
  -8.65499955E-03   0.00000000    
  -8.63999967E-03   0.00000000    
  -8.62499978E-03   0.00000000    
  -8.60999990E-03   0.00000000    
  -8.59500002E-03   0.00000000    
  -8.58000014E-03   0.00000000    
  -8.56500026E-03   0.00000000    
  -8.55000038E-03   0.00000000    
  -8.53499956E-03   0.00000000    
  -8.51999968E-03   0.00000000    
  -8.50499980E-03   0.00000000    
  -8.48999992E-03   0.00000000    
  -8.47500004E-03   0.00000000    
  -8.46000016E-03   0.00000000    
  -8.44500028E-03   0.00000000    
  -8.43000039E-03   0.00000000    
  -8.41499958E-03   0.00000000    
  -8.39999970E-03   0.00000000    
  -8.38499982E-03   0.00000000    
  -8.36999994E-03   0.00000000    
  -8.35500006E-03   0.00000000    
  -8.34000017E-03   0.00000000    
  -8.32500029E-03   0.00000000    
  -8.31000041E-03   0.00000000    
  -8.29499960E-03   0.00000000    
  -8.27999972E-03   0.00000000    
  -8.26499984E-03   0.00000000    
  -8.24999996E-03   0.00000000    
  -8.23500007E-03   0.00000000    
  -8.22000019E-03   0.00000000    
  -8.20500031E-03   0.00000000    
  -8.19000043E-03   0.00000000    
  -8.17499962E-03   0.00000000    
  -8.15999974E-03   0.00000000    
  -8.14499985E-03   0.00000000    
  -8.12999997E-03   0.00000000    
  -8.11500009E-03   0.00000000    
  -8.10000021E-03   0.00000000    
  -8.08500033E-03   0.00000000    
  -8.07000045E-03   0.00000000    
  -8.05499963E-03   0.00000000    
  -8.03999975E-03   0.00000000    
  -8.02499987E-03   0.00000000    
  -8.00999999E-03   0.00000000    
  -7.99500011E-03   0.00000000    
  -7.98000023E-03   0.00000000    
  -7.96500035E-03   0.00000000    
  -7.95000046E-03   0.00000000    
  -7.93499965E-03   0.00000000    
  -7.91999977E-03   0.00000000    
  -7.90499989E-03   0.00000000    
  -7.89000001E-03   0.00000000    
  -7.87500013E-03   0.00000000    
  -7.86000025E-03   0.00000000    
  -7.84500036E-03   0.00000000    
  -7.82999955E-03   0.00000000    
  -7.81499967E-03   0.00000000    
  -7.79999979E-03   0.00000000    
  -7.78499991E-03   0.00000000    
  -7.77000003E-03   0.00000000    
  -7.75500014E-03   0.00000000    
  -7.73999980E-03   0.00000000    
  -7.72499992E-03   0.00000000    
  -7.71000003E-03   0.00000000    
  -7.69500015E-03   0.00000000    
  -7.67999981E-03   0.00000000    
  -7.66499992E-03   0.00000000    
  -7.65000004E-03   0.00000000    
  -7.63500016E-03   0.00000000    
  -7.61999981E-03   0.00000000    
  -7.60499993E-03   0.00000000    
  -7.59000005E-03   0.00000000    
  -7.57500017E-03   0.00000000    
  -7.55999982E-03   0.00000000    
  -7.54499994E-03   0.00000000    
  -7.53000006E-03   0.00000000    
  -7.51500018E-03   0.00000000    
  -7.49999983E-03  -0.00000000    
  -7.48499995E-03  -0.00000000    
  -7.47000007E-03  -1.60139099E-38
  -7.45500019E-03  -2.67125659E-38
  -7.43999984E-03  -3.96991078E-38
  -7.42499996E-03  -5.37487308E-38
  -7.41000008E-03  -6.77983510E-38
  -7.39500020E-03  -8.18479768E-38
  -7.37999985E-03  -9.58976026E-38
  -7.36499997E-03  -1.08628735E-37
  -7.35000009E-03  -1.17985777E-37
  -7.33500021E-03  -1.21636485E-37
  -7.31999986E-03  -1.18071873E-37
  -7.30499998E-03  -1.06707398E-37
  -7.29000010E-03  -8.63258260E-38
  -7.27500021E-03  -5.60165306E-38
  -7.25999987E-03  -1.52903677E-38
  -7.24499999E-03   3.58112697E-38
  -7.23000010E-03   9.66222420E-38
  -7.21500022E-03   1.65779471E-37
  -7.19999988E-03   2.41172860E-37
  -7.18499999E-03   3.18149077E-37
  -7.17000011E-03   3.92014927E-37
  -7.15500023E-03   4.57037194E-37
  -7.13999989E-03   4.89968739E-37
  -7.12500000E-03   4.55944629E-37
  -7.11000012E-03   3.66546854E-37
  -7.09499978E-03   1.54334136E-37
  -7.07999989E-03  -1.25272462E-37
  -7.06500001E-03  -3.97610659E-37
  -7.05000013E-03  -7.39227001E-37
  -7.03499978E-03  -1.15034255E-36
  -7.01999990E-03  -1.63062838E-36
  -7.00500002E-03  -2.17110718E-36
  -6.99000014E-03  -2.78300279E-36
  -6.97499979E-03  -3.49717748E-36
  -6.95999991E-03  -4.27630338E-36
  -6.94500003E-03  -5.06202456E-36
  -6.93000015E-03  -5.79807710E-36
  -6.91499980E-03  -6.32314583E-36
  -6.89999992E-03  -6.22122421E-36
  -6.88500004E-03  -5.45291841E-36
  -6.87000016E-03  -4.55719910E-36
  -6.85499981E-03  -3.53688629E-36
  -6.83999993E-03  -2.08552995E-36
  -6.82500005E-03  -1.63562494E-37
  -6.81000017E-03   2.30069657E-36
  -6.79499982E-03   5.36536941E-36
  -6.77999994E-03   9.36784767E-36
  -6.76500006E-03   1.39887157E-35
  -6.75000018E-03   1.87825128E-35
  -6.73499983E-03   2.35129592E-35
  -6.71999995E-03   2.84366835E-35
  -6.70500007E-03   3.44545487E-35
  -6.69000018E-03   4.00783020E-35
  -6.67499984E-03   4.44386083E-35
  -6.65999996E-03   4.79681362E-35
  -6.64500007E-03   4.99266028E-35
  -6.63000019E-03   4.99230958E-35
  -6.61499985E-03   4.73550626E-35
  -6.59999996E-03   4.15706316E-35
  -6.58500008E-03   3.23766099E-35
  -6.57000020E-03   1.98025784E-35
  -6.55499985E-03   4.27988317E-36
  -6.53999997E-03  -1.31796163E-35
  -6.52500009E-03  -3.30683579E-35
  -6.51000021E-03  -5.63017139E-35
  -6.49499986E-03  -8.12638645E-35
  -6.47999998E-03  -1.06540012E-34
  -6.46500010E-03  -1.31428993E-34
  -6.45000022E-03  -1.53243803E-34
  -6.43499987E-03  -1.69557713E-34
  -6.41999999E-03  -1.78885353E-34
  -6.40500011E-03  -1.79739469E-34
  -6.39000023E-03  -1.71075857E-34
  -6.37499988E-03  -1.52064854E-34
  -6.36000000E-03  -1.22524531E-34
  -6.34500012E-03  -8.23693458E-35
  -6.32999977E-03  -3.24002088E-35
  -6.31499989E-03   2.71496319E-35
  -6.30000001E-03   9.44930547E-35
  -6.28500013E-03   1.67488843E-34
  -6.26999978E-03   2.43694328E-34
  -6.25499990E-03   3.18712633E-34
  -6.24000002E-03   3.85147831E-34
  -6.22500014E-03   4.34743407E-34
  -6.20999979E-03   4.64796803E-34
  -6.19499991E-03   4.72754532E-34
  -6.18000003E-03   4.54211155E-34
  -6.16500014E-03   4.05091608E-34
  -6.14999980E-03   3.22142367E-34
  -6.13499992E-03   2.04031060E-34
  -6.12000003E-03   5.10268380E-35
  -6.10500015E-03  -1.29532039E-34
  -6.08999981E-03  -3.28972885E-34
  -6.07499992E-03  -5.39892617E-34
  -6.06000004E-03  -7.55275324E-34
  -6.04500016E-03  -9.69413661E-34
  -6.02999981E-03  -1.17412288E-33
  -6.01499993E-03  -1.35915304E-33
  -6.00000005E-03  -1.50990229E-33
  -5.98500017E-03  -1.61175888E-33
  -5.96999982E-03  -1.64385703E-33
  -5.95499994E-03  -1.58683086E-33
  -5.94000006E-03  -1.43505480E-33
  -5.92500018E-03  -1.18620099E-33
  -5.90999983E-03  -8.43375595E-34
  -5.89499995E-03  -4.06536272E-34
  -5.88000007E-03   1.27850014E-34
  -5.86500019E-03   7.63434633E-34
  -5.84999984E-03   1.48951141E-33
  -5.83499996E-03   2.28088185E-33
  -5.82000008E-03   3.11239753E-33
  -5.80500020E-03   3.94937412E-33
  -5.78999985E-03   4.75288843E-33
  -5.77499997E-03   5.47952577E-33
  -5.76000009E-03   6.08371995E-33
  -5.74500021E-03   6.52197914E-33
  -5.72999986E-03   6.75517812E-33
  -5.71499998E-03   6.73094237E-33
  -5.70000010E-03   6.41276029E-33
  -5.68500021E-03   5.79386913E-33
  -5.66999987E-03   4.85782995E-33
  -5.65499999E-03   3.60299488E-33
  -5.64000010E-03   2.04988784E-33
  -5.62500022E-03   2.25966909E-34
  -5.60999988E-03  -1.81885086E-33
  -5.59500000E-03  -4.02117112E-33
  -5.58000011E-03  -6.31040559E-33
  -5.56500023E-03  -8.60309344E-33
  -5.54999989E-03  -1.08041038E-32
  -5.53500000E-03  -1.28063233E-32
  -5.52000012E-03  -1.44933722E-32
  -5.50499978E-03  -1.57412800E-32
  -5.48999989E-03  -1.64430442E-32
  -5.47500001E-03  -1.65035983E-32
  -5.46000013E-03  -1.58359146E-32
  -5.44499978E-03  -1.43893263E-32
  -5.42999990E-03  -1.21381591E-32
  -5.41500002E-03  -9.09279704E-33
  -5.40000014E-03  -5.30896448E-33
  -5.38499979E-03  -8.77402483E-34
  -5.36999991E-03   4.06909124E-33
  -5.35500003E-03   9.35705185E-33
  -5.34000015E-03   1.47741875E-32
  -5.32499980E-03   2.00777976E-32
  -5.30999992E-03   2.50127419E-32
  -5.29500004E-03   2.93100142E-32
  -5.28000016E-03   3.26866775E-32
  -5.26499981E-03   3.48750630E-32
  -5.24999993E-03   3.56375651E-32
  -5.23500005E-03   3.47746700E-32
  -5.22000017E-03   3.21404224E-32
  -5.20499982E-03   2.76533489E-32
  -5.18999994E-03   2.13175004E-32
  -5.17500006E-03   1.32321432E-32
  -5.16000018E-03   3.59202972E-33
  -5.14499983E-03  -7.30923416E-33
  -5.12999995E-03  -1.90824316E-32
  -5.11500007E-03  -3.12570501E-32
  -5.10000018E-03  -4.32981501E-32
  -5.08499984E-03  -5.46151544E-32
  -5.06999996E-03  -6.45751650E-32
  -5.05500007E-03  -7.25353307E-32
  -5.04000019E-03  -7.78796040E-32
  -5.02499985E-03  -8.00463869E-32
  -5.00999996E-03  -7.85644412E-32
  -4.99500008E-03  -7.30859440E-32
  -4.98000020E-03  -6.34145818E-32
  -4.96499985E-03  -4.95382178E-32
  -4.94999997E-03  -3.16453218E-32
  -4.93500009E-03  -1.01504069E-32
  -4.92000021E-03   1.42934206E-32
  -4.90499986E-03   4.08273668E-32
  -4.88999998E-03   6.83997006E-32
  -4.87500010E-03   9.57791798E-32
  -4.86000022E-03   1.21601799E-31
  -4.84499987E-03   1.44421424E-31
  -4.82999999E-03   1.62767846E-31
  -4.81500011E-03   1.75220258E-31
  -4.80000023E-03   1.80485085E-31
  -4.78499988E-03   1.77474151E-31
  -4.77000000E-03   1.65380806E-31
  -4.75500012E-03   1.43752638E-31
  -4.73999977E-03   1.12552926E-31
  -4.72499989E-03   7.22049991E-32
  -4.71000001E-03   2.36240114E-32
  -4.69500013E-03  -3.17579400E-32
  -4.67999978E-03  -9.20082468E-32
  -4.66499990E-03  -1.54732661E-31
  -4.65000002E-03  -2.17131886E-31
  -4.63500014E-03  -2.76102111E-31
  -4.61999979E-03  -3.28354152E-31
  -4.60499991E-03  -3.70542197E-31
  -4.59000003E-03  -3.99415583E-31
  -4.57500014E-03  -4.11995300E-31
  -4.55999980E-03  -4.05752391E-31
  -4.54499992E-03  -3.78780132E-31
  -4.53000003E-03  -3.29955951E-31
  -4.51500015E-03  -2.59088312E-31
  -4.49999981E-03  -1.67042532E-31
  -4.48499992E-03  -5.58151930E-32
  -4.47000004E-03   7.14456004E-32
  -4.45500016E-03   2.10451058E-31
  -4.43999982E-03   3.55850657E-31
  -4.42499993E-03   5.01370064E-31
  -4.41000005E-03   6.39999122E-31
  -4.39500017E-03   7.64248405E-31
  -4.37999982E-03   8.66454817E-31
  -4.36499994E-03   9.39124912E-31
  -4.35000006E-03   9.75314810E-31
  -4.33500018E-03   9.69023094E-31
  -4.31999983E-03   9.15580607E-31
  -4.30499995E-03   8.12021059E-31
  -4.29000007E-03   6.57420371E-31
  -4.27500019E-03   4.53161207E-31
  -4.25999984E-03   2.03126388E-31
  -4.24499996E-03  -8.61883743E-32
  -4.23000008E-03  -4.05699400E-31
  -4.21500020E-03  -7.43880896E-31
  -4.19999985E-03  -1.08702956E-30
  -4.18499997E-03  -1.41967029E-30
  -4.17000009E-03  -1.72508347E-30
  -4.15500021E-03  -1.98594523E-30
  -4.13999986E-03  -2.18507736E-30
  -4.12499998E-03  -2.30627196E-30
  -4.11000010E-03  -2.33514266E-30
  -4.09500021E-03  -2.25998494E-30
  -4.07999987E-03  -2.07261151E-30
  -4.06499999E-03  -1.76910376E-30
  -4.05000011E-03  -1.35045248E-30
  -4.03500022E-03  -8.23043435E-31
  -4.01999988E-03  -1.98938172E-31
  -4.00500000E-03   5.04075158E-31
  -3.99000011E-03   1.26269384E-30
  -3.97500023E-03   2.04859475E-30
  -3.95999989E-03   2.82920181E-30
  -3.94500000E-03   3.56872825E-30
  -3.93000012E-03   4.22947908E-30
  -3.91499978E-03   4.77336847E-30
  -3.89999989E-03   5.16361454E-30
  -3.88500001E-03   5.36653834E-30
  -3.86999990E-03   5.35341117E-30
  -3.85500002E-03   5.10226088E-30
  -3.83999990E-03   4.59954953E-30
  -3.82500002E-03   3.84162839E-30
  -3.80999991E-03   2.83589648E-30
  -3.79500003E-03   1.60156968E-30
  -3.77999991E-03   1.69988461E-31
  -3.76500003E-03  -1.41559067E-30
  -3.74999992E-03  -3.10077580E-30
  -3.73500003E-03  -4.82138431E-30
  -3.71999992E-03  -6.50536930E-30
  -3.70500004E-03  -8.07527981E-30
  -3.68999992E-03  -9.45119877E-30
  -3.67500004E-03  -1.05540728E-29
  -3.65999993E-03  -1.13093285E-29
  -3.64500005E-03  -1.16506085E-29
  -3.62999993E-03  -1.15235024E-29
  -3.61500005E-03  -1.08890853E-29
  -3.59999994E-03  -9.72708071E-30
  -3.58500006E-03  -8.03848402E-30
  -3.56999994E-03  -5.84747502E-30
  -3.55500006E-03  -3.20247129E-30
  -3.53999995E-03  -1.76175652E-31
  -3.52500007E-03   3.13545646E-30
  -3.50999995E-03   6.61535946E-30
  -3.49500007E-03   1.01286522E-29
  -3.47999996E-03   1.35270172E-29
  -3.46500007E-03   1.66540669E-29
  -3.44999996E-03   1.93515334E-29
  -3.43500008E-03   2.14660826E-29
  -3.41999996E-03   2.28565002E-29
  -3.40500008E-03   2.34009471E-29
  -3.38999997E-03   2.30039768E-29
  -3.37500009E-03   2.16029756E-29
  -3.35999997E-03   1.91736588E-29
  -3.34500009E-03   1.57343451E-29
  -3.32999998E-03   1.13486942E-29
  -3.31500010E-03   6.12661788E-30
  -3.29999998E-03   2.23245961E-31
  -3.28500010E-03  -6.16425062E-30
  -3.26999999E-03  -1.28019136E-29
  -3.25500011E-03  -1.94263453E-29
  -3.23999999E-03  -2.57539595E-29
  -3.22500011E-03  -3.14918465E-29
  -3.21000000E-03  -3.63499356E-29
  -3.19500011E-03  -4.00539532E-29
  -3.18000000E-03  -4.23586865E-29
  -3.16499989E-03  -4.30610190E-29
  -3.15000000E-03  -4.20120282E-29
  -3.13499989E-03  -3.91276231E-29
  -3.12000001E-03  -3.43970877E-29
  -3.10499989E-03  -2.78889582E-29
  -3.09000001E-03  -1.97538316E-29
  -3.07499990E-03  -1.02237156E-29
  -3.06000002E-03   3.92349969E-31
  -3.04499990E-03   1.17164234E-29
  -3.03000002E-03   2.33134437E-29
  -3.01499991E-03   3.47064342E-29
  -3.00000003E-03   4.53946894E-29
  -2.98499991E-03   5.48743062E-29
  -2.97000003E-03   6.26602391E-29
  -2.95499992E-03   6.83091541E-29
  -2.94000003E-03   7.14418537E-29
  -2.92499992E-03   7.17644409E-29
  -2.91000004E-03   6.90870492E-29
  -2.89499993E-03   6.33390872E-29
  -2.88000004E-03   5.45801745E-29
  -2.86499993E-03   4.30058562E-29
  -2.85000005E-03   2.89475245E-29
  -2.83499993E-03   1.28662307E-29
  -2.82000005E-03  -4.65989583E-30
  -2.80499994E-03  -2.29543345E-29
  -2.79000006E-03  -4.12665218E-29
  -2.77499994E-03  -5.88011449E-29
  -2.76000006E-03  -7.47513296E-29
  -2.74499995E-03  -8.83344380E-29
  -2.73000007E-03  -9.88289928E-29
  -2.71499995E-03  -1.05610981E-28
  -2.70000007E-03  -1.08187959E-28
  -2.68499996E-03  -1.06229120E-28
  -2.67000007E-03  -9.95896990E-29
  -2.65499996E-03  -8.83281908E-29
  -2.64000008E-03  -7.27151823E-29
  -2.62499996E-03  -5.32328180E-29
  -2.61000008E-03  -3.05642825E-29
  -2.59499997E-03  -5.57332152E-30
  -2.58000009E-03   2.07258409E-29
  -2.56499997E-03   4.72074589E-29
  -2.55000009E-03   7.26807262E-29
  -2.53499998E-03   9.59419877E-29
  -2.52000010E-03   1.15830434E-28
  -2.50499998E-03   1.31284915E-28
  -2.49000010E-03   1.41399393E-28
  -2.47499999E-03   1.45473927E-28
  -2.46000011E-03   1.43058811E-28
  -2.44499999E-03   1.33989005E-28
  -2.43000011E-03   1.18406967E-28
  -2.41500000E-03   9.67718589E-29
  -2.40000011E-03   6.98539967E-29
  -2.38500000E-03   3.87138400E-29
  -2.36999989E-03   4.66582033E-30
  -2.35500000E-03  -3.07722408E-29
  -2.33999989E-03  -6.59424269E-29
  -2.32500001E-03  -9.91203800E-29
  -2.30999989E-03  -1.28596497E-28
  -2.29500001E-03  -1.52760755E-28
  -2.27999990E-03  -1.70187159E-28
  -2.26500002E-03  -1.79714349E-28
  -2.24999990E-03  -1.80517113E-28
  -2.23500002E-03  -1.72165631E-28
  -2.21999991E-03  -1.54668256E-28
  -2.20500003E-03  -1.28494868E-28
  -2.18999991E-03  -9.45786700E-29
  -2.17500003E-03  -5.42948360E-29
  -2.15999992E-03  -9.41593244E-30