  -1.49999997E-02   0.00000000    
  -1.49849998E-02   0.00000000    
  -1.49699999E-02   0.00000000    
  -1.49550000E-02   0.00000000    
  -1.49400001E-02   0.00000000    
  -1.49250003E-02   0.00000000    
  -1.49100004E-02   0.00000000    
  -1.48949996E-02   0.00000000    
  -1.48799997E-02   0.00000000    
  -1.48649998E-02   0.00000000    
  -1.48499999E-02   0.00000000    
  -1.48350000E-02   0.00000000    
  -1.48200002E-02   0.00000000    
  -1.48050003E-02   0.00000000    
  -1.47900004E-02   0.00000000    
  -1.47749996E-02   0.00000000    
  -1.47599997E-02   0.00000000    
  -1.47449998E-02   0.00000000    
  -1.47299999E-02   0.00000000    
  -1.47150001E-02   0.00000000    
  -1.47000002E-02   0.00000000    
  -1.46850003E-02   0.00000000    
  -1.46700004E-02   0.00000000    
  -1.46549996E-02   0.00000000    
  -1.46399997E-02   0.00000000    
  -1.46249998E-02   0.00000000    
  -1.46100000E-02   0.00000000    
  -1.45950001E-02  -0.00000000    
  -1.45800002E-02  -0.00000000    
  -1.45650003E-02  -0.00000000    
  -1.45500004E-02  -1.29167068E-38
  -1.45349996E-02  -2.59741853E-38
  -1.45199997E-02  -4.95608662E-38
  -1.45049999E-02  -9.12876053E-38
  -1.44900000E-02  -1.63693442E-37
  -1.44750001E-02  -2.87074084E-37
  -1.44600002E-02  -4.93718569E-37
  -1.44450003E-02  -8.34147551E-37
  -1.44300004E-02  -1.38617233E-36
  -1.44149996E-02  -2.27076896E-36
  -1.43999998E-02  -3.67317053E-36
  -1.43849999E-02  -5.84258072E-36
  -1.43700000E-02  -9.16390256E-36
  -1.43550001E-02  -1.41829937E-35
  -1.43400002E-02  -2.16730221E-35
  -1.43250003E-02  -3.27258718E-35
  -1.43100005E-02  -4.88233084E-35
  -1.42949997E-02  -7.20076673E-35
  -1.42799998E-02  -1.05029674E-34
  -1.42649999E-02  -1.51549771E-34
  -1.42500000E-02  -2.16425683E-34
  -1.42350001E-02  -3.05940542E-34
  -1.42200002E-02  -4.28224051E-34
  -1.42050004E-02  -5.93602102E-34
  -1.41899996E-02  -8.15065742E-34
  -1.41749997E-02  -1.10873876E-33
  -1.41599998E-02  -1.49439017E-33
  -1.41449999E-02  -1.99591374E-33
  -1.41300000E-02  -2.64176743E-33
  -1.41150001E-02  -3.46530078E-33
  -1.41000003E-02  -4.50489402E-33
  -1.40850004E-02  -5.80380867E-33
  -1.40699996E-02  -7.40961623E-33
  -1.40549997E-02  -9.37304224E-33
  -1.40399998E-02  -1.17460311E-32
  -1.40249999E-02  -1.45787880E-32
  -1.40100000E-02  -1.79155154E-32
  -1.39950002E-02  -2.17885269E-32
  -1.39800003E-02  -2.62103590E-32
  -1.39650004E-02  -3.11634925E-32
  -1.39499996E-02  -3.65872205E-32
  -1.39349997E-02  -4.23612223E-32
  -1.39199998E-02  -4.82853406E-32
  -1.39049999E-02  -5.40551430E-32
  -1.38900001E-02  -5.92328194E-32
  -1.38750002E-02  -6.32130551E-32
  -1.38600003E-02  -6.51836832E-32
  -1.38450004E-02  -6.40810283E-32
  -1.38299996E-02  -5.85400066E-32
  -1.38149997E-02  -4.68395737E-32
  -1.37999998E-02  -2.68441444E-32
  -1.37850000E-02   4.05769042E-33
  -1.37700001E-02   4.90154725E-32
  -1.37550002E-02   1.11777828E-31
  -1.37400003E-02   1.96748990E-31
  -1.37250004E-02   3.09037183E-31
  -1.37099996E-02   4.54490080E-31
  -1.36949997E-02   6.39711831E-31
  -1.36799999E-02   8.72055060E-31
  -1.36650000E-02   1.15958013E-30
  -1.36500001E-02   1.51097404E-30
  -1.36350002E-02   1.93541853E-30
  -1.36200003E-02   2.44239684E-30
  -1.36050005E-02   3.04143177E-30
  -1.35899996E-02   3.74173845E-30
  -1.35749998E-02   4.55178458E-30
  -1.35599999E-02   5.47874670E-30
  -1.35450000E-02   6.52785228E-30
  -1.35300001E-02   7.70159599E-30
  -1.35150002E-02   8.99882942E-30
  -1.35000004E-02   1.04137124E-29
  -1.34849995E-02   1.19345342E-29
  -1.34699997E-02   1.35424021E-29
  -1.34549998E-02   1.52098106E-29
  -1.34399999E-02   1.68991039E-29
  -1.34250000E-02   1.85608579E-29
  -1.34100001E-02   2.01322091E-29
  -1.33950002E-02   2.15351859E-29
  -1.33800004E-02   2.26750671E-29
  -1.33649996E-02   2.34388503E-29
  -1.33499997E-02   2.36939111E-29
  -1.33349998E-02   2.32868899E-29
  -1.33199999E-02   2.20429769E-29
  -1.33050000E-02   1.97656249E-29
  -1.32900001E-02   1.62368624E-29
  -1.32750003E-02   1.12183034E-29
  -1.32600004E-02   4.45298099E-30
  -1.32449996E-02  -4.33184527E-30
  -1.32299997E-02  -1.54207811E-29
  -1.32149998E-02  -2.91051619E-29
  -1.31999999E-02  -4.56765763E-29
  -1.31850000E-02  -6.54189171E-29
  -1.31700002E-02  -8.85988923E-29
  -1.31550003E-02  -1.15454926E-28
  -1.31400004E-02  -1.46184450E-28
  -1.31249996E-02  -1.80929466E-28
  -1.31099997E-02  -2.19760740E-28
  -1.30949998E-02  -2.62660276E-28
  -1.30799999E-02  -3.09502768E-28
  -1.30650001E-02  -3.60035703E-28
  -1.30500002E-02  -4.13859089E-28
  -1.30350003E-02  -4.70404682E-28
  -1.30200004E-02  -5.28915011E-28
  -1.30049996E-02  -5.88423887E-28
  -1.29899997E-02  -6.47737522E-28
  -1.29749998E-02  -7.05417872E-28
  -1.29600000E-02  -7.59769348E-28
  -1.29450001E-02  -8.08828369E-28
  -1.29300002E-02  -8.50358063E-28
  -1.29150003E-02  -8.81849040E-28
  -1.29000004E-02  -9.00525553E-28
  -1.28849996E-02  -9.03359848E-28
  -1.28699997E-02  -8.87095658E-28
  -1.28549999E-02  -8.48279696E-28
  -1.28400000E-02  -7.83304549E-28
  -1.28250001E-02  -6.88461888E-28
  -1.28100002E-02  -5.60007128E-28
  -1.27950003E-02  -3.94236150E-28
  -1.27800005E-02  -1.87573636E-28
  -1.27649996E-02   6.33267733E-29
  -1.27499998E-02   3.61470834E-28
  -1.27349999E-02   7.09401899E-28
  -1.27200000E-02   1.10906987E-27
  -1.27050001E-02   1.56169172E-27
  -1.26900002E-02   2.06760713E-27
  -1.26750004E-02   2.62613009E-27
  -1.26599995E-02   3.23540053E-27
  -1.26449997E-02   3.89223740E-27
  -1.26299998E-02   4.59200016E-27
  -1.26149999E-02   5.32845690E-27
  -1.26000000E-02   6.09367354E-27
  -1.25850001E-02   6.87791183E-27
  -1.25700003E-02   7.66956302E-27
  -1.25550004E-02   8.45510132E-27
  -1.25399996E-02   9.21907458E-27
  -1.25249997E-02   9.94413405E-27
  -1.25099998E-02   1.06111005E-26
  -1.24949999E-02   1.11990854E-26
  -1.24800000E-02   1.16856585E-26
  -1.24650002E-02   1.20470662E-26
  -1.24500003E-02   1.22585117E-26
  -1.24350004E-02   1.22944804E-26
  -1.24199996E-02   1.21291332E-26
  -1.24049997E-02   1.17367473E-26
  -1.23899998E-02   1.10922163E-26
  -1.23749999E-02   1.01715879E-26
  -1.23600001E-02   8.95265761E-27
  -1.23450002E-02   7.41558987E-27
  -1.23300003E-02   5.54357171E-27
  -1.23150004E-02   3.32347831E-27
  -1.22999996E-02   7.46551643E-28
  -1.22849997E-02  -2.19093020E-27
  -1.22699998E-02  -5.48700715E-27
  -1.22550000E-02  -9.13342232E-27
  -1.22400001E-02  -1.31150637E-26
  -1.22250002E-02  -1.74094715E-26
  -1.22100003E-02  -2.19864255E-26
  -1.21950004E-02  -2.68076414E-26
  -1.21799996E-02  -3.18265809E-26
  -1.21649997E-02  -3.69883967E-26
  -1.21499998E-02  -4.22300046E-26
  -1.21350000E-02  -4.74803484E-26
  -1.21200001E-02  -5.26607857E-26
  -1.21050002E-02  -5.76857064E-26
  -1.20900003E-02  -6.24632514E-26
  -1.20750004E-02  -6.68963107E-26
  -1.20599996E-02  -7.08835958E-26
  -1.20449997E-02  -7.43209278E-26
  -1.20299999E-02  -7.71027349E-26
  -1.20150000E-02  -7.91235685E-26
  -1.20000001E-02  -8.02798968E-26
  -1.19850002E-02  -8.04718612E-26
  -1.19700003E-02  -7.96051804E-26
  -1.19550005E-02  -7.75931352E-26
  -1.19399996E-02  -7.43584727E-26
  -1.19249998E-02  -6.98353661E-26
  -1.19099999E-02  -6.39712330E-26
  -1.18950000E-02  -5.67285839E-26
  -1.18800001E-02  -4.80865726E-26
  -1.18650002E-02  -3.80424874E-26
  -1.18500004E-02  -2.66129961E-26
  -1.18349995E-02  -1.38351196E-26
  -1.18199997E-02   2.33065233E-28
  -1.18049998E-02   1.55120268E-26
  -1.17899999E-02   3.19006907E-26
  -1.17750000E-02   4.92767449E-26
  -1.17600001E-02   6.74972563E-26
  -1.17450003E-02   8.63996887E-26
  -1.17300004E-02   1.05803196E-25
  -1.17149996E-02   1.25510358E-25
  -1.16999997E-02   1.45309202E-25
  -1.16849998E-02   1.64975356E-25
  -1.16699999E-02   1.84274764E-25
  -1.16550000E-02   2.02966293E-25
  -1.16400002E-02   2.20804657E-25
  -1.16250003E-02   2.37543521E-25
  -1.16100004E-02   2.52938265E-25
  -1.15949996E-02   2.66749248E-25
  -1.15799997E-02   2.78744543E-25
  -1.15649998E-02   2.88702827E-25
  -1.15499999E-02   2.96415693E-25
  -1.15350001E-02   3.01690190E-25
  -1.15200002E-02   3.04350574E-25
  -1.15050003E-02   3.04239936E-25
  -1.14900004E-02   3.01221458E-25
  -1.14749996E-02   2.95179228E-25
  -1.14599997E-02   2.86018482E-25
  -1.14449998E-02   2.73665758E-25
  -1.14300000E-02   2.58068302E-25
  -1.14150001E-02   2.39193646E-25
  -1.14000002E-02   2.17028257E-25
  -1.13850003E-02   1.91576523E-25
  -1.13700004E-02   1.62859422E-25
  -1.13549996E-02   1.30913070E-25
  -1.13399997E-02   9.57874354E-26
  -1.13249999E-02   5.75452090E-26
  -1.13100000E-02   1.62610718E-26
  -1.12950001E-02  -2.79787608E-26
  -1.12800002E-02  -7.50764593E-26
  -1.12650003E-02  -1.24921770E-25
  -1.12500004E-02  -1.77390609E-25
  -1.12349996E-02  -2.32342783E-25
  -1.12199998E-02  -2.89618991E-25
  -1.12049999E-02  -3.49036783E-25
  -1.11900000E-02  -4.10386052E-25
  -1.11750001E-02  -4.73423237E-25
  -1.11600002E-02  -5.37865136E-25
  -1.11450003E-02  -6.03382253E-25
  -1.11300005E-02  -6.69591250E-25
  -1.11149997E-02  -7.36047555E-25
  -1.10999998E-02  -8.02237965E-25
  -1.10849999E-02  -8.67573348E-25
  -1.10700000E-02  -9.31381841E-25
  -1.10550001E-02  -9.92903525E-25
  -1.10400002E-02  -1.05128594E-24
  -1.10250004E-02  -1.10558106E-24
  -1.10099996E-02  -1.15474495E-24
  -1.09949997E-02  -1.19763906E-24
  -1.09799998E-02  -1.23303525E-24
  -1.09649999E-02  -1.25962262E-24
  -1.09500000E-02  -1.27601920E-24
  -1.09350001E-02  -1.28078559E-24
  -1.09200003E-02  -1.27244378E-24
  -1.09050004E-02  -1.24949888E-24
  -1.08899996E-02  -1.21046505E-24
  -1.08749997E-02  -1.15389515E-24
  -1.08599998E-02  -1.07841368E-24
  -1.08449999E-02  -9.82753351E-25
  -1.08300000E-02  -8.65793678E-25
  -1.08150002E-02  -7.26602622E-25
  -1.08000003E-02  -5.64478394E-25
  -1.07850004E-02  -3.78993653E-25
  -1.07699996E-02  -1.70038155E-25
  -1.07549997E-02   6.21395164E-26
  -1.07399998E-02   3.16892279E-25
  -1.07249999E-02   5.93138500E-25
  -1.07100001E-02   8.89330723E-25
  -1.06950002E-02   1.20342999E-24
  -1.06800003E-02   1.53288759E-24
  -1.06650004E-02   1.87463486E-24
  -1.06499996E-02   2.22508197E-24
  -1.06349997E-02   2.58012697E-24
  -1.06199998E-02   2.93517689E-24
  -1.06050000E-02   3.28517949E-24
  -1.05900001E-02   3.62466834E-24
  -1.05750002E-02   3.94781851E-24
  -1.05600003E-02   4.24851690E-24
  -1.05450004E-02   4.52044514E-24
  -1.05299996E-02   4.75717007E-24
  -1.05149997E-02   4.95224985E-24
  -1.04999999E-02   5.09934677E-24
  -1.04850000E-02   5.19234835E-24
  -1.04700001E-02   5.22549668E-24
  -1.04550002E-02   5.19351665E-24
  -1.04400003E-02   5.09175241E-24
  -1.04250005E-02   4.91629910E-24
  -1.04099996E-02   4.66412866E-24
  -1.03949998E-02   4.33321453E-24
  -1.03799999E-02   3.92264162E-24
  -1.03650000E-02   3.43270535E-24
  -1.03500001E-02   2.86499470E-24
  -1.03350002E-02   2.22245546E-24
  -1.03200004E-02   1.50943367E-24
  -1.03049995E-02   7.31692550E-25
  -1.02899997E-02  -1.03595038E-25
  -1.02749998E-02  -9.87882919E-25
  -1.02599999E-02  -1.91131728E-24
  -1.02450000E-02  -2.86283223E-24
  -1.02300001E-02  -3.83027468E-24
  -1.02150002E-02  -4.80055861E-24
  -1.02000004E-02  -5.75985015E-24
  -1.01849996E-02  -6.69377508E-24
  -1.01699997E-02  -7.58765309E-24
  -1.01549998E-02  -8.42674945E-24
  -1.01399999E-02  -9.19654832E-24
  -1.01250000E-02  -9.88302691E-24
  -1.01100001E-02  -1.04729489E-23
  -1.00950003E-02  -1.09541501E-23
  -1.00800004E-02  -1.13158184E-23
  -1.00649996E-02  -1.15487667E-23
  -1.00499997E-02  -1.16456814E-23
  -1.00349998E-02  -1.16013498E-23
  -1.00199999E-02  -1.14128546E-23
  -1.00050000E-02  -1.10797273E-23
  -9.99000017E-03  -1.06040623E-23
  -9.97500028E-03  -9.99058021E-24
  -9.96000040E-03  -9.24663547E-24
  -9.94499959E-03  -8.38216934E-24
  -9.92999971E-03  -7.40960403E-24
  -9.91499983E-03  -6.34367743E-24
  -9.89999995E-03  -5.20121041E-24
  -9.88500006E-03  -4.00082523E-24
  -9.87000018E-03  -2.76259976E-24
  -9.85500030E-03  -1.50767392E-24
  -9.84000042E-03  -2.57809481E-25
  -9.82499961E-03   9.65089572E-25
  -9.80999973E-03   2.13948603E-24
  -9.79499985E-03   3.24473715E-24
  -9.77999996E-03   4.26163447E-24
  -9.76500008E-03   5.17293566E-24
  -9.75000020E-03   5.96388705E-24
  -9.73500032E-03   6.62270739E-24
  -9.72000044E-03   7.14103949E-24
  -9.70499963E-03   7.51434031E-24
  -9.68999974E-03   7.74219883E-24
  -9.67499986E-03   7.82857910E-24
  -9.65999998E-03   7.78196295E-24
  -9.64500010E-03   7.61539576E-24
  -9.63000022E-03   7.34641864E-24
  -9.61500034E-03   6.99688147E-24
  -9.60000046E-03   6.59263207E-24
  -9.58499964E-03   6.16309060E-24
  -9.56999976E-03   5.74068872E-24
  -9.55499988E-03   5.36020178E-24
  -9.54000000E-03   5.05796234E-24
  -9.52500012E-03   4.87097233E-24
  -9.51000024E-03   4.83593231E-24
  -9.49500035E-03   4.98819193E-24
  -9.47999954E-03   5.36065024E-24
  -9.46499966E-03   5.98261974E-24
  -9.44999978E-03   6.87868881E-24
  -9.43499990E-03   8.06758897E-24
  -9.42000002E-03   9.56112197E-24
  -9.40500014E-03   1.13631422E-23
  -9.39000025E-03   1.34686514E-23
  -9.37500037E-03   1.58630178E-23
  -9.35999956E-03   1.85213544E-23
  -9.34499968E-03   2.14080710E-23
  -9.32999980E-03   2.44766468E-23
  -9.31499992E-03   2.76696276E-23
  -9.30000003E-03   3.09188699E-23
  -9.28500015E-03   3.41460305E-23
  -9.27000027E-03   3.72633626E-23
  -9.25500039E-03   4.01747611E-23
  -9.23999958E-03   4.27770870E-23
  -9.22499970E-03   4.49617710E-23
  -9.20999981E-03   4.66166655E-23
  -9.19499993E-03   4.76281398E-23
  -9.18000005E-03   4.78833994E-23
  -9.16500017E-03   4.72729599E-23
  -9.15000029E-03   4.56932943E-23
  -9.13500041E-03   4.30495690E-23
  -9.11999959E-03   3.92584423E-23
  -9.10499971E-03   3.42508732E-23
  -9.08999983E-03   2.79748694E-23
  -9.07499995E-03   2.03981176E-23
  -9.06000007E-03   1.15104698E-23
  -9.04500019E-03   1.32618454E-24
  -9.03000031E-03  -1.01141316E-23
  -9.01500043E-03  -2.27419101E-23
  -8.99999961E-03  -3.64594313E-23
  -8.98499973E-03  -5.11390915E-23
  -8.96999985E-03  -6.66231720E-23
  -8.95499997E-03  -8.27241260E-23
  -8.94000009E-03  -9.92255121E-23
  -8.92500021E-03  -1.15883478E-22
  -8.91000032E-03  -1.32428844E-22
  -8.89500044E-03  -1.48569910E-22
  -8.87999963E-03  -1.63995726E-22
  -8.86499975E-03  -1.78380106E-22
  -8.84999987E-03  -1.91386112E-22
  -8.83499999E-03  -2.02671077E-22
  -8.82000010E-03  -2.11892204E-22
  -8.80500022E-03  -2.18712355E-22
  -8.79000034E-03  -2.22806404E-22
  -8.77500046E-03  -2.23867668E-22
  -8.75999965E-03  -2.21614530E-22
  -8.74499977E-03  -2.15797129E-22
  -8.72999988E-03  -2.06203924E-22
  -8.71500000E-03  -1.92668093E-22
  -8.70000012E-03  -1.75073592E-22
  -8.68500024E-03  -1.53360883E-22
  -8.67000036E-03  -1.27531974E-22
  -8.65499955E-03  -9.76548270E-23
  -8.63999967E-03  -6.38670435E-23
  -8.62499978E-03  -2.63784974E-23
  -8.60999990E-03   1.45268357E-23
  -8.59500002E-03   5.84902685E-23
  -8.58000014E-03   1.05078936E-22
  -8.56500026E-03   1.53787487E-22
  -8.55000038E-03   2.04041183E-22
  -8.53499956E-03   2.55200113E-22
  -8.51999968E-03   3.06564777E-22
  -8.50499980E-03   3.57383121E-22
  -8.48999992E-03   4.06858584E-22
  -8.47500004E-03   4.54159416E-22
  -8.46000016E-03   4.98429331E-22
  -8.44500028E-03   5.38798764E-22
  -8.43000039E-03   5.74397519E-22
  -8.41499958E-03   6.04367822E-22
  -8.39999970E-03   6.27878149E-22
  -8.38499982E-03   6.44137620E-22
  -8.36999994E-03   6.52410132E-22
  -8.35500006E-03   6.52029258E-22
  -8.34000017E-03   6.42412374E-22
  -8.32500029E-03   6.23074705E-22
  -8.31000041E-03   5.93642494E-22
  -8.29499960E-03   5.53865881E-22
  -8.27999972E-03   5.03629704E-22
  -8.26499984E-03   4.42964003E-22
  -8.24999996E-03   3.72052324E-22
  -8.23500007E-03   2.91238535E-22
  -8.22000019E-03   2.01031533E-22
  -8.20500031E-03   1.02107997E-22
  -8.19000043E-03  -4.68719851E-24
  -8.17499962E-03  -1.18343159E-22
  -8.15999974E-03  -2.37687502E-22
  -8.14499985E-03  -3.61393463E-22
  -8.12999997E-03  -4.87989810E-22
  -8.11500009E-03  -6.15873377E-22
  -8.10000021E-03  -7.43324168E-22
  -8.08500033E-03  -8.68523083E-22
  -8.07000045E-03  -9.89572262E-22
  -8.05499963E-03  -1.10451735E-21
  -8.03999975E-03  -1.21137198E-21
  -8.02499987E-03  -1.30814494E-21
  -8.00999999E-03  -1.39286805E-21
  -7.99500011E-03  -1.46362561E-21
  -7.98000023E-03  -1.51858476E-21
  -7.96500035E-03  -1.55602720E-21
  -7.95000046E-03  -1.57438017E-21
  -7.93499965E-03  -1.57224770E-21
  -7.91999977E-03  -1.54844101E-21
  -7.90499989E-03  -1.50200833E-21
  -7.89000001E-03  -1.43226222E-21
  -7.87500013E-03  -1.33880475E-21
  -7.86000025E-03  -1.22155139E-21
  -7.84500036E-03  -1.08075014E-21
  -7.82999955E-03  -9.16998270E-22
  -7.81499967E-03  -7.31254268E-22
  -7.79999979E-03  -5.24845695E-22
  -7.78499991E-03  -2.99472097E-22
  -7.77000003E-03  -5.72026645E-23
  -7.75500014E-03   1.99531448E-22
  -7.73999980E-03   4.67950724E-22
  -7.72499992E-03   7.44946622E-22
  -7.71000003E-03   1.02710690E-21
  -7.69500015E-03   1.31074684E-21
  -7.67999981E-03   1.59194706E-21
  -7.66499992E-03   1.86659545E-21
  -7.65000004E-03   2.13043659E-21
  -7.63500016E-03   2.37912391E-21
  -7.61999981E-03   2.60827940E-21
  -7.60499993E-03   2.81355449E-21
  -7.59000005E-03   2.99069614E-21
  -7.57500017E-03   3.13561411E-21
  -7.55999982E-03   3.24445116E-21
  -7.54499994E-03   3.31365443E-21
  -7.53000006E-03   3.34004424E-21
  -7.51500018E-03   3.32088459E-21
  -7.49999983E-03   3.25394859E-21
  -7.48499995E-03   3.13758230E-21
  -7.47000007E-03   2.97076242E-21
  -7.45500019E-03   2.75314869E-21
  -7.43999984E-03   2.48512905E-21
  -7.42499996E-03   2.16785621E-21
  -7.41000008E-03   1.80327413E-21
  -7.39500020E-03   1.39413588E-21
  -7.37999985E-03   9.44008767E-22
  -7.36499997E-03   4.57267301E-22
  -7.35000009E-03  -6.09266749E-23
  -7.33500021E-03  -6.04656204E-22
  -7.31999986E-03  -1.16729604E-21
  -7.30499998E-03  -1.74157345E-21
  -7.29000010E-03  -2.31964123E-21
  -7.27500021E-03  -2.89316638E-21
  -7.25999987E-03  -3.45342857E-21
  -7.24499999E-03  -3.99143322E-21
  -7.23000010E-03  -4.49803409E-21
  -7.21500022E-03  -4.96406555E-21
  -7.19999988E-03  -5.38048313E-21
  -7.18499999E-03  -5.73851017E-21
  -7.17000011E-03  -6.02978922E-21
  -7.15500023E-03  -6.24653356E-21
  -7.13999989E-03  -6.38168227E-21
  -7.12500000E-03  -6.42904805E-21
  -7.11000012E-03  -6.38346467E-21
  -7.09499978E-03  -6.24091939E-21
  -7.07999989E-03  -5.99868230E-21
  -7.06500001E-03  -5.65541648E-21
  -7.05000013E-03  -5.21127623E-21
  -7.03499978E-03  -4.66798134E-21
  -7.01999990E-03  -4.02887728E-21
  -7.00500002E-03  -3.29896733E-21
  -6.99000014E-03  -2.48492043E-21
  -6.97499979E-03  -1.59505433E-21
  -6.95999991E-03  -6.39289646E-22
  -6.94500003E-03   3.70924543E-22
  -6.93000015E-03   1.42271380E-21
  -6.91499980E-03   2.50190995E-21
  -6.89999992E-03   3.59320998E-21
  -6.88500004E-03   4.68036562E-21
  -6.87000016E-03   5.74639463E-21
  -6.85499981E-03   6.77381556E-21
  -6.83999993E-03   7.74490581E-21
  -6.82500005E-03   8.64197268E-21
  -6.81000017E-03   9.44764337E-21
  -6.79499982E-03   1.01451602E-20
  -6.77999994E-03   1.07186839E-20
  -6.76500006E-03   1.11535943E-20
  -6.75000018E-03   1.14367874E-20
  -6.73499983E-03   1.15569652E-20
  -6.71999995E-03   1.15049013E-20
  -6.70500007E-03   1.12736995E-20
  -6.69000018E-03   1.08590098E-20
  -6.67499984E-03   1.02592287E-20
  -6.65999996E-03   9.47565038E-21
  -6.64500007E-03   8.51258596E-21
  -6.63000019E-03   7.37743082E-21
  -6.61499985E-03   6.08068748E-21
  -6.59999996E-03   4.63594182E-21
  -6.58500008E-03   3.05977582E-21
  -6.57000020E-03   1.37163368E-21
  -6.55499985E-03  -4.06368657E-22
  -6.53999997E-03  -2.24968772E-21
  -6.52500009E-03  -4.13165245E-21
  -6.51000021E-03  -6.02380629E-21
  -6.49499986E-03  -7.89630490E-21
  -6.47999998E-03  -9.71834872E-21
  -6.46500010E-03  -1.14586543E-20
  -6.45000022E-03  -1.30859553E-20
  -6.43499987E-03  -1.45695247E-20
  -6.41999999E-03  -1.58797126E-20
  -6.40500011E-03  -1.69884900E-20
  -6.39000023E-03  -1.78699899E-20
  -6.37499988E-03  -1.85010285E-20
  -6.36000000E-03  -1.88616179E-20
  -6.34500012E-03  -1.89354325E-20
  -6.32999977E-03  -1.87102438E-20
  -6.31499989E-03  -1.81782924E-20
  -6.30000001E-03  -1.73366103E-20
  -6.28500013E-03  -1.61872784E-20
  -6.26999978E-03  -1.47375829E-20
  -6.25499990E-03  -1.30001264E-20
  -6.24000002E-03  -1.09928192E-20
  -6.22500014E-03  -8.73879886E-21
  -6.20999979E-03  -6.26625059E-21
  -6.19499991E-03  -3.60812871E-21
  -6.18000003E-03  -8.01790399E-22
  -6.16500014E-03   2.11146374E-21
  -6.14999980E-03   5.08693822E-21
  -6.13499992E-03   8.07716907E-21
  -6.12000003E-03   1.10326272E-20
  -6.10500015E-03   1.39024859E-20
  -6.08999981E-03   1.66354390E-20
  -6.07499992E-03   1.91805623E-20
  -6.06000004E-03   2.14882071E-20
  -6.04500016E-03   2.35108964E-20
  -6.02999981E-03   2.52042369E-20
  -6.01499993E-03   2.65277921E-20
  -6.00000005E-03   2.74459400E-20
  -5.98500017E-03   2.79286742E-20
  -5.96999982E-03   2.79523328E-20
  -5.95499994E-03   2.75002560E-20
  -5.94000006E-03   2.65633366E-20
  -5.92500018E-03   2.51404745E-20
  -5.90999983E-03   2.32388945E-20
  -5.89499995E-03   2.08743325E-20
  -5.88000007E-03   1.80710998E-20
  -5.86500019E-03   1.48619686E-20
  -5.84999984E-03   1.12879361E-20
  -5.83499996E-03   7.39781468E-21
  -5.82000008E-03   3.24767709E-21
  -5.80500020E-03  -1.09984214E-21
  -5.78999985E-03  -5.57639569E-21
  -5.77499997E-03  -1.01088927E-20
  -5.76000009E-03  -1.46205999E-20
  -5.74500021E-03  -1.90323370E-20
  -5.72999986E-03  -2.32637681E-20
  -5.71499998E-03  -2.72347536E-20
  -5.70000010E-03  -3.08667551E-20
  -5.68500021E-03  -3.40842615E-20
  -5.66999987E-03  -3.68162096E-20
  -5.65499999E-03  -3.89973944E-20
  -5.64000010E-03  -4.05698002E-20
  -5.62500022E-03  -4.14838994E-20
  -5.60999988E-03  -4.16997967E-20
  -5.59500000E-03  -4.11882825E-20
  -5.58000011E-03  -3.99317402E-20
  -5.56500023E-03  -3.79248449E-20
  -5.54999989E-03  -3.51751188E-20
  -5.53500000E-03  -3.17032447E-20
  -5.52000012E-03  -2.75431886E-20
  -5.50499978E-03  -2.27420724E-20
  -5.48999989E-03  -1.73598279E-20
  -5.47500001E-03  -1.14686080E-20
  -5.46000013E-03  -5.15195672E-21
  -5.44499978E-03   1.49623917E-21
  -5.42999990E-03   8.37301943E-21
  -5.41500002E-03   1.53678202E-20
  -5.40000014E-03   2.23641365E-20
  -5.38499979E-03   2.92413323E-20
  -5.36999991E-03   3.58766003E-20
  -5.35500003E-03   4.21470171E-20
  -5.34000015E-03   4.79316753E-20
  -5.32499980E-03   5.31138455E-20
  -5.30999992E-03   5.75831638E-20
  -5.29500004E-03   6.12377382E-20
  -5.28000016E-03   6.39862396E-20
  -5.26499981E-03   6.57498016E-20
  -5.24999993E-03   6.64638588E-20
  -5.23500005E-03   6.60797239E-20
  -5.22000017E-03   6.45659446E-20
  -5.20499982E-03   6.19094799E-20
  -5.18999994E-03   5.81165014E-20
  -5.17500006E-03   5.32129456E-20
  -5.16000018E-03   4.72447083E-20
  -5.14499983E-03   4.02775178E-20
  -5.12999995E-03   3.23964608E-20
  -5.11500007E-03   2.37051320E-20
  -5.10000018E-03   1.43244612E-20
  -5.08499984E-03   4.39117068E-21
  -5.06999996E-03  -5.94406455E-21
  -5.05500007E-03  -1.65187694E-20
  -5.04000019E-03  -2.71611087E-20
  -5.02499985E-03  -3.76925558E-20
  -5.00999996E-03  -4.79307544E-20
  -4.99500008E-03  -5.76925842E-20
  -4.98000020E-03  -6.67972578E-20
  -4.96499985E-03  -7.50696003E-20
  -4.94999997E-03  -8.23431675E-20
  -4.93500009E-03  -8.84635027E-20
  -4.92000021E-03  -9.32911162E-20
  -4.90499986E-03  -9.67044511E-20
  -4.88999998E-03  -9.86024752E-20
  -4.87500010E-03  -9.89071555E-20
  -4.86000022E-03  -9.75655138E-20
  -4.84499987E-03  -9.45513323E-20
  -4.82999999E-03  -8.98664462E-20
  -4.81500011E-03  -8.35416230E-20
  -4.80000023E-03  -7.56369364E-20
  -4.78499988E-03  -6.62416122E-20
  -4.77000000E-03  -5.54734784E-20
  -4.75500012E-03  -4.34777278E-20
  -4.73999977E-03  -3.04253508E-20
  -4.72499989E-03  -1.65109112E-20
  -4.71000001E-03  -1.94995713E-21
  -4.69500013E-03   1.30240726E-20
  -4.67999978E-03   2.81633382E-20
  -4.66499990E-03   4.32094272E-20
  -4.65000002E-03   5.78975376E-20
  -4.63500014E-03   7.19608488E-20
  -4.61999979E-03   8.51350765E-20
  -4.60499991E-03   9.71631809E-20
  -4.59000003E-03   1.07800013E-19
  -4.57500014E-03   1.16816979E-19
  -4.55999980E-03   1.24006536E-19
  -4.54499992E-03   1.29186431E-19
  -4.53000003E-03   1.32203715E-19
  -4.51500015E-03   1.32938303E-19
  -4.49999981E-03   1.31306095E-19
  -4.48499992E-03   1.27261686E-19
  -4.47000004E-03   1.20800293E-19
  -4.45500016E-03   1.11959167E-19
  -4.43999982E-03   1.00818389E-19
  -4.42499993E-03   8.75007872E-20
  -4.41000005E-03   7.21712500E-20
  -4.39500017E-03   5.50352277E-20
  -4.37999982E-03   3.63365257E-20
  -4.36499994E-03   1.63543462E-20
  -4.35000006E-03  -4.60036498E-21
  -4.33500018E-03  -2.61892410E-20
  -4.31999983E-03  -4.80513968E-20
  -4.30499995E-03  -6.98089061E-20
  -4.29000007E-03  -9.10727212E-20
  -4.27500019E-03  -1.11449004E-19
  -4.25999984E-03  -1.30545722E-19
  -4.24499996E-03  -1.47979355E-19
  -4.23000008E-03  -1.63381845E-19
  -4.21500020E-03  -1.76407342E-19
  -4.19999985E-03  -1.86738828E-19
  -4.18499997E-03  -1.94094532E-19
  -4.17000009E-03  -1.98233898E-19
  -4.15500021E-03  -1.98963019E-19
  -4.13999986E-03  -1.96139529E-19
  -4.12499998E-03  -1.89676702E-19
  -4.11000010E-03  -1.79546829E-19
  -4.09500021E-03  -1.65783603E-19
  -4.07999987E-03  -1.48483689E-19
  -4.06499999E-03  -1.27807147E-19
  -4.05000011E-03  -1.03976849E-19
  -4.03500022E-03  -7.72768801E-20
  -4.01999988E-03  -4.80498006E-20
  -4.00500000E-03  -1.66928699E-20
  -3.99000011E-03   1.63467594E-20
  -3.97500023E-03   5.05778552E-20
  -3.95999989E-03   8.54717972E-20
  -3.94500000E-03   1.20470119E-19
  -3.93000012E-03   1.54992786E-19
  -3.91499978E-03   1.88447124E-19
  -3.89999989E-03   2.20237071E-19
  -3.88500001E-03   2.49773080E-19
  -3.86999990E-03   2.76481785E-19
  -3.85500002E-03   2.99816214E-19
  -3.83999990E-03   3.19265428E-19
  -3.82500002E-03   3.34364136E-19
  -3.80999991E-03   3.44701671E-19
  -3.79500003E-03   3.49930538E-19
  -3.77999991E-03   3.49774020E-19
  -3.76500003E-03   3.44032921E-19
  -3.74999992E-03   3.32591281E-19
  -3.73500003E-03   3.15420847E-19
  -3.71999992E-03   2.92584226E-19
  -3.70500004E-03   2.64236746E-19
  -3.68999992E-03   2.30626795E-19
  -3.67500004E-03   1.92094706E-19
  -3.65999993E-03   1.49070096E-19
  -3.64500005E-03   1.02067664E-19
  -3.62999993E-03   5.16815467E-20
  -3.61500005E-03  -1.42179705E-21
  -3.59999994E-03  -5.65120747E-20
  -3.58500006E-03  -1.12804856E-19
  -3.56999994E-03  -1.69472518E-19
  -3.55500006E-03  -2.25656060E-19
  -3.53999995E-03  -2.80477765E-19
  -3.52500007E-03  -3.33054658E-19
  -3.50999995E-03  -3.82512278E-19
  -3.49500007E-03  -4.27998629E-19
  -3.47999996E-03  -4.68698216E-19
  -3.46500007E-03  -5.03845844E-19
  -3.44999996E-03  -5.32740193E-19
  -3.43500008E-03  -5.54756536E-19
  -3.41999996E-03  -5.69358083E-19
  -3.40500008E-03  -5.76107464E-19
  -3.38999997E-03  -5.74675562E-19
  -3.37500009E-03  -5.64849794E-19
  -3.35999997E-03  -5.46540203E-19
  -3.34500009E-03  -5.19784322E-19
  -3.32999998E-03  -4.84749397E-19
  -3.31500010E-03  -4.41733265E-19
  -3.29999998E-03  -3.91162855E-19
  -3.28500010E-03  -3.33590852E-19
  -3.26999999E-03  -2.69689909E-19
  -3.25500011E-03  -2.00245343E-19
  -3.23999999E-03  -1.26145522E-19
  -3.22500011E-03  -4.83704591E-20
  -3.21000000E-03   3.20211147E-20
  -3.19500011E-03   1.13906338E-19
  -3.18000000E-03   1.96114119E-19
  -3.16499989E-03   2.77442116E-19
  -3.15000000E-03   3.56674645E-19
  -3.13499989E-03   4.32601011E-19
  -3.12000001E-03   5.04034234E-19
  -3.10499989E-03   5.69830042E-19
  -3.09000001E-03   6.28905058E-19
  -3.07499990E-03   6.80254931E-19
  -3.06000002E-03   7.22971107E-19
  -3.04499990E-03   7.56256958E-19
  -3.03000002E-03   7.79441951E-19
  -3.01499991E-03   7.91994727E-19
  -3.00000003E-03   7.93533335E-19
  -2.98499991E-03   7.83834487E-19
  -2.97000003E-03   7.62839403E-19
  -2.95499992E-03   7.30657941E-19
  -2.94000003E-03   6.87569793E-19
  -2.92499992E-03   6.34023341E-19
  -2.91000004E-03   5.70631218E-19
  -2.89499993E-03   4.98164354E-19
  -2.88000004E-03   4.17541981E-19
  -2.86499993E-03   3.29820588E-19
  -2.85000005E-03   2.36179504E-19
  -2.83499993E-03   1.37904747E-19
  -2.82000005E-03   3.63710346E-20
  -2.80499994E-03  -6.69781648E-20
  -2.79000006E-03  -1.70651781E-19
  -2.77499994E-03  -2.73133332E-19
  -2.76000006E-03  -3.72903980E-19
  -2.74499995E-03  -4.68466037E-19
  -2.73000007E-03  -5.58366094E-19
  -2.71499995E-03  -6.41218158E-19
  -2.70000007E-03  -7.15725987E-19
  -2.68499996E-03  -7.80704229E-19
  -2.67000007E-03  -8.35098023E-19
  -2.65499996E-03  -8.78001245E-19
  -2.64000008E-03  -9.08671862E-19
  -2.62499996E-03  -9.26545890E-19
  -2.61000008E-03  -9.31247688E-19
  -2.59499997E-03  -9.22598274E-19
  -2.58000009E-03  -9.00619775E-19
  -2.56499997E-03  -8.65537960E-19
  -2.55000009E-03  -8.17780015E-19
  -2.53499998E-03  -7.57970462E-19
  -2.52000010E-03  -6.86923041E-19
  -2.50499998E-03  -6.05629850E-19
  -2.49000010E-03  -5.15247650E-19
  -2.47499999E-03  -4.17080672E-19
  -2.46000011E-03  -3.12562059E-19
  -2.44499999E-03  -2.03231879E-19
  -2.43000011E-03  -9.07139380E-20
  -2.41500000E-03   2.33092420E-20
  -2.40000011E-03   1.37122661E-19
  -2.38500000E-03   2.49005818E-19
  -2.36999989E-03   3.57259927E-19
  -2.35500000E-03   4.60235228E-19
  -2.33999989E-03   5.56357596E-19
  -2.32500001E-03   6.44154443E-19
  -2.30999989E-03   7.22278653E-19
  -2.29500001E-03   7.89531435E-19
  -2.27999990E-03   8.44882174E-19
  -2.26500002E-03   8.87486422E-19
  -2.24999990E-03   9.16700477E-19
  -2.23500002E-03   9.32093481E-19
  -2.21999991E-03   9.33454503E-19
  -2.20500003E-03   9.20798329E-19
  -2.18999991E-03   8.94366290E-19
  -2.17500003E-03   8.54622743E-19
  -2.15999992E-03   8.02249441E-19