  -1.49999997E-02   0.00000000    
  -1.49849998E-02   0.00000000    
  -1.49699999E-02   0.00000000    
  -1.49550000E-02   0.00000000    
  -1.49400001E-02   0.00000000    
  -1.49250003E-02   0.00000000    
  -1.49100004E-02   0.00000000    
  -1.48949996E-02   0.00000000    
  -1.48799997E-02   0.00000000    
  -1.48649998E-02   0.00000000    
  -1.48499999E-02   0.00000000    
  -1.48350000E-02   0.00000000    
  -1.48200002E-02   0.00000000    
  -1.48050003E-02   0.00000000    
  -1.47900004E-02   0.00000000    
  -1.47749996E-02   0.00000000    
  -1.47599997E-02   0.00000000    
  -1.47449998E-02   0.00000000    
  -1.47299999E-02   0.00000000    
  -1.47150001E-02   0.00000000    
  -1.47000002E-02   0.00000000    
  -1.46850003E-02   0.00000000    
  -1.46700004E-02   0.00000000    
  -1.46549996E-02   0.00000000    
  -1.46399997E-02   0.00000000    
  -1.46249998E-02   0.00000000    
  -1.46100000E-02   0.00000000    
  -1.45950001E-02   0.00000000    
  -1.45800002E-02   0.00000000    
  -1.45650003E-02   0.00000000    
  -1.45500004E-02   0.00000000    
  -1.45349996E-02   0.00000000    
  -1.45199997E-02   0.00000000    
  -1.45049999E-02   0.00000000    
  -1.44900000E-02   0.00000000    
  -1.44750001E-02   0.00000000    
  -1.44600002E-02   0.00000000    
  -1.44450003E-02   0.00000000    
  -1.44300004E-02   0.00000000    
  -1.44149996E-02   0.00000000    
  -1.43999998E-02   0.00000000    
  -1.43849999E-02   0.00000000    
  -1.43700000E-02   0.00000000    
  -1.43550001E-02   0.00000000    
  -1.43400002E-02   0.00000000    
  -1.43250003E-02   0.00000000    
  -1.43100005E-02   0.00000000    
  -1.42949997E-02   0.00000000    
  -1.42799998E-02   0.00000000    
  -1.42649999E-02   0.00000000    
  -1.42500000E-02   0.00000000    
  -1.42350001E-02   0.00000000    
  -1.42200002E-02   0.00000000    
  -1.42050004E-02   0.00000000    
  -1.41899996E-02   0.00000000    
  -1.41749997E-02   0.00000000    
  -1.41599998E-02   0.00000000    
  -1.41449999E-02   0.00000000    
  -1.41300000E-02   0.00000000    
  -1.41150001E-02   0.00000000    
  -1.41000003E-02   0.00000000    
  -1.40850004E-02   0.00000000    
  -1.40699996E-02   0.00000000    
  -1.40549997E-02   0.00000000    
  -1.40399998E-02   0.00000000    
  -1.40249999E-02   0.00000000    
  -1.40100000E-02   0.00000000    
  -1.39950002E-02   0.00000000    
  -1.39800003E-02   0.00000000    
  -1.39650004E-02   0.00000000    
  -1.39499996E-02   0.00000000    
  -1.39349997E-02   0.00000000    
  -1.39199998E-02   0.00000000    
  -1.39049999E-02   0.00000000    
  -1.38900001E-02   0.00000000    
  -1.38750002E-02   0.00000000    
  -1.38600003E-02   0.00000000    
  -1.38450004E-02   0.00000000    
  -1.38299996E-02   0.00000000    
  -1.38149997E-02   0.00000000    
  -1.37999998E-02   0.00000000    
  -1.37850000E-02   0.00000000    
  -1.37700001E-02   0.00000000    
  -1.37550002E-02   0.00000000    
  -1.37400003E-02   0.00000000    
  -1.37250004E-02   0.00000000    
  -1.37099996E-02   0.00000000    
  -1.36949997E-02   0.00000000    
  -1.36799999E-02   0.00000000    
  -1.36650000E-02   0.00000000    
  -1.36500001E-02   0.00000000    
  -1.36350002E-02   0.00000000    
  -1.36200003E-02   0.00000000    
  -1.36050005E-02   0.00000000    
  -1.35899996E-02   0.00000000    
  -1.35749998E-02   0.00000000    
  -1.35599999E-02   0.00000000    
  -1.35450000E-02   0.00000000    
  -1.35300001E-02   0.00000000    
  -1.35150002E-02   0.00000000    
  -1.35000004E-02   0.00000000    
  -1.34849995E-02   0.00000000    
  -1.34699997E-02   0.00000000    
  -1.34549998E-02   0.00000000    
  -1.34399999E-02   0.00000000    
  -1.34250000E-02   0.00000000    
  -1.34100001E-02   0.00000000    
  -1.33950002E-02   0.00000000    
  -1.33800004E-02   0.00000000    
  -1.33649996E-02   0.00000000    
  -1.33499997E-02   0.00000000    
  -1.33349998E-02   0.00000000    
  -1.33199999E-02   0.00000000    
  -1.33050000E-02   0.00000000    
  -1.32900001E-02   0.00000000    
  -1.32750003E-02   0.00000000    
  -1.32600004E-02   0.00000000    
  -1.32449996E-02   0.00000000    
  -1.32299997E-02   0.00000000    
  -1.32149998E-02   0.00000000    
  -1.31999999E-02   0.00000000    
  -1.31850000E-02   0.00000000    
  -1.31700002E-02   0.00000000    
  -1.31550003E-02   0.00000000    
  -1.31400004E-02   0.00000000    
  -1.31249996E-02   0.00000000    
  -1.31099997E-02   0.00000000    
  -1.30949998E-02   0.00000000    
  -1.30799999E-02   0.00000000    
  -1.30650001E-02   0.00000000    
  -1.30500002E-02   0.00000000    
  -1.30350003E-02   0.00000000    
  -1.30200004E-02   0.00000000    
  -1.30049996E-02   0.00000000    
  -1.29899997E-02   0.00000000    
  -1.29749998E-02   0.00000000    
  -1.29600000E-02   0.00000000    
  -1.29450001E-02   0.00000000    
  -1.29300002E-02   0.00000000    
  -1.29150003E-02   0.00000000    
  -1.29000004E-02   0.00000000    
  -1.28849996E-02   0.00000000    
  -1.28699997E-02   0.00000000    
  -1.28549999E-02   0.00000000    
  -1.28400000E-02   0.00000000    
  -1.28250001E-02   0.00000000    
  -1.28100002E-02   0.00000000    
  -1.27950003E-02   0.00000000    
  -1.27800005E-02   0.00000000    
  -1.27649996E-02   0.00000000    
  -1.27499998E-02   0.00000000    
  -1.27349999E-02   0.00000000    
  -1.27200000E-02   0.00000000    
  -1.27050001E-02   0.00000000    
  -1.26900002E-02   0.00000000    
  -1.26750004E-02   0.00000000    
  -1.26599995E-02   0.00000000    
  -1.26449997E-02   0.00000000    
  -1.26299998E-02   0.00000000    
  -1.26149999E-02   0.00000000    
  -1.26000000E-02   0.00000000    
  -1.25850001E-02   0.00000000    
  -1.25700003E-02   0.00000000    
  -1.25550004E-02   0.00000000    
  -1.25399996E-02   0.00000000    
  -1.25249997E-02   0.00000000    
  -1.25099998E-02   0.00000000    
  -1.24949999E-02   0.00000000    
  -1.24800000E-02   0.00000000    
  -1.24650002E-02   0.00000000    
  -1.24500003E-02   0.00000000    
  -1.24350004E-02   0.00000000    
  -1.24199996E-02   0.00000000    
  -1.24049997E-02   0.00000000    
  -1.23899998E-02   0.00000000    
  -1.23749999E-02   0.00000000    
  -1.23600001E-02   0.00000000    
  -1.23450002E-02   0.00000000    
  -1.23300003E-02   0.00000000    
  -1.23150004E-02   0.00000000    
  -1.22999996E-02   0.00000000    
  -1.22849997E-02   0.00000000    
  -1.22699998E-02   0.00000000    
  -1.22550000E-02   0.00000000    
  -1.22400001E-02   0.00000000    
  -1.22250002E-02   0.00000000    
  -1.22100003E-02   0.00000000    
  -1.21950004E-02   0.00000000    
  -1.21799996E-02   0.00000000    
  -1.21649997E-02   0.00000000    
  -1.21499998E-02   0.00000000    
  -1.21350000E-02   0.00000000    
  -1.21200001E-02   0.00000000    
  -1.21050002E-02   0.00000000    
  -1.20900003E-02   0.00000000    
  -1.20750004E-02   0.00000000    
  -1.20599996E-02   0.00000000    
  -1.20449997E-02   0.00000000    
  -1.20299999E-02   0.00000000    
  -1.20150000E-02   0.00000000    
  -1.20000001E-02   0.00000000    
  -1.19850002E-02   0.00000000    
  -1.19700003E-02   0.00000000    
  -1.19550005E-02   0.00000000    
  -1.19399996E-02   0.00000000    
  -1.19249998E-02   0.00000000    
  -1.19099999E-02   0.00000000    
  -1.18950000E-02   0.00000000    
  -1.18800001E-02   0.00000000    
  -1.18650002E-02   0.00000000    
  -1.18500004E-02   0.00000000    
  -1.18349995E-02   0.00000000    
  -1.18199997E-02   0.00000000    
  -1.18049998E-02   0.00000000    
  -1.17899999E-02   0.00000000    
  -1.17750000E-02   0.00000000    
  -1.17600001E-02   0.00000000    
  -1.17450003E-02   0.00000000    
  -1.17300004E-02   0.00000000    
  -1.17149996E-02   0.00000000    
  -1.16999997E-02   0.00000000    
  -1.16849998E-02   0.00000000    
  -1.16699999E-02   0.00000000    
  -1.16550000E-02   0.00000000    
  -1.16400002E-02   0.00000000    
  -1.16250003E-02   0.00000000    
  -1.16100004E-02   0.00000000    
  -1.15949996E-02   0.00000000    
  -1.15799997E-02   0.00000000    
  -1.15649998E-02   0.00000000    
  -1.15499999E-02   0.00000000    
  -1.15350001E-02   0.00000000    
  -1.15200002E-02   0.00000000    
  -1.15050003E-02   0.00000000    
  -1.14900004E-02   0.00000000    
  -1.14749996E-02   0.00000000    
  -1.14599997E-02   0.00000000    
  -1.14449998E-02   0.00000000    
  -1.14300000E-02   0.00000000    
  -1.14150001E-02   0.00000000    
  -1.14000002E-02   0.00000000    
  -1.13850003E-02   0.00000000    
  -1.13700004E-02   0.00000000    
  -1.13549996E-02   0.00000000    
  -1.13399997E-02   0.00000000    
  -1.13249999E-02   0.00000000    
  -1.13100000E-02   0.00000000    
  -1.12950001E-02   0.00000000    
  -1.12800002E-02   0.00000000    
  -1.12650003E-02   0.00000000    
  -1.12500004E-02   0.00000000    
  -1.12349996E-02   0.00000000    
  -1.12199998E-02   0.00000000    
  -1.12049999E-02   0.00000000    
  -1.11900000E-02   0.00000000    
  -1.11750001E-02   0.00000000    
  -1.11600002E-02   0.00000000    
  -1.11450003E-02   0.00000000    
  -1.11300005E-02   0.00000000    
  -1.11149997E-02   0.00000000    
  -1.10999998E-02   0.00000000    
  -1.10849999E-02   0.00000000    
  -1.10700000E-02   0.00000000    
  -1.10550001E-02   0.00000000    
  -1.10400002E-02   0.00000000    
  -1.10250004E-02   0.00000000    
  -1.10099996E-02   0.00000000    
  -1.09949997E-02   0.00000000    
  -1.09799998E-02   0.00000000    
  -1.09649999E-02   0.00000000    
  -1.09500000E-02   0.00000000    
  -1.09350001E-02   0.00000000    
  -1.09200003E-02   0.00000000    
  -1.09050004E-02   0.00000000    
  -1.08899996E-02   0.00000000    
  -1.08749997E-02   0.00000000    
  -1.08599998E-02   0.00000000    
  -1.08449999E-02   0.00000000    
  -1.08300000E-02   0.00000000    
  -1.08150002E-02   0.00000000    
  -1.08000003E-02   0.00000000    
  -1.07850004E-02   0.00000000    
  -1.07699996E-02   0.00000000    
  -1.07549997E-02   0.00000000    
  -1.07399998E-02   0.00000000    
  -1.07249999E-02   0.00000000    
  -1.07100001E-02   0.00000000    
  -1.06950002E-02   0.00000000    
  -1.06800003E-02   0.00000000    
  -1.06650004E-02   0.00000000    
  -1.06499996E-02   0.00000000    
  -1.06349997E-02   0.00000000    
  -1.06199998E-02   0.00000000    
  -1.06050000E-02   0.00000000    
  -1.05900001E-02   0.00000000    
  -1.05750002E-02   0.00000000    
  -1.05600003E-02   0.00000000    
  -1.05450004E-02   0.00000000    
  -1.05299996E-02   0.00000000    
  -1.05149997E-02   0.00000000    
  -1.04999999E-02   0.00000000    
  -1.04850000E-02   0.00000000    
  -1.04700001E-02   0.00000000    
  -1.04550002E-02   0.00000000    
  -1.04400003E-02   0.00000000    
  -1.04250005E-02   0.00000000    
  -1.04099996E-02   0.00000000    
  -1.03949998E-02   0.00000000    
  -1.03799999E-02   0.00000000    
  -1.03650000E-02   0.00000000    
  -1.03500001E-02   0.00000000    
  -1.03350002E-02   0.00000000    
  -1.03200004E-02   0.00000000    
  -1.03049995E-02   0.00000000    
  -1.02899997E-02   0.00000000    
  -1.02749998E-02   0.00000000    
  -1.02599999E-02   0.00000000    
  -1.02450000E-02   0.00000000    
  -1.02300001E-02   0.00000000    
  -1.02150002E-02   0.00000000    
  -1.02000004E-02   0.00000000    
  -1.01849996E-02   0.00000000    
  -1.01699997E-02   0.00000000    
  -1.01549998E-02   0.00000000    
  -1.01399999E-02   0.00000000    
  -1.01250000E-02   0.00000000    
  -1.01100001E-02   0.00000000    
  -1.00950003E-02   0.00000000    
  -1.00800004E-02   0.00000000    
  -1.00649996E-02   0.00000000    
  -1.00499997E-02   0.00000000    
  -1.00349998E-02   0.00000000    
  -1.00199999E-02   0.00000000    
  -1.00050000E-02   0.00000000    
  -9.99000017E-03   0.00000000    
  -9.97500028E-03   0.00000000    
  -9.96000040E-03   0.00000000    
  -9.94499959E-03   0.00000000    
  -9.92999971E-03   0.00000000    
  -9.91499983E-03   0.00000000    
  -9.89999995E-03   0.00000000    
  -9.88500006E-03   0.00000000    
  -9.87000018E-03   0.00000000    
  -9.85500030E-03   0.00000000    
  -9.84000042E-03   0.00000000    
  -9.82499961E-03   0.00000000    
  -9.80999973E-03   0.00000000    
  -9.79499985E-03   0.00000000    
  -9.77999996E-03   0.00000000    
  -9.76500008E-03   0.00000000    
  -9.75000020E-03   0.00000000    
  -9.73500032E-03   0.00000000    
  -9.72000044E-03   0.00000000    
  -9.70499963E-03   0.00000000    
  -9.68999974E-03   0.00000000    
  -9.67499986E-03   0.00000000    
  -9.65999998E-03   0.00000000    
  -9.64500010E-03   0.00000000    
  -9.63000022E-03   0.00000000    
  -9.61500034E-03   0.00000000    
  -9.60000046E-03   0.00000000    
  -9.58499964E-03   0.00000000    
  -9.56999976E-03   0.00000000    
  -9.55499988E-03   0.00000000    
  -9.54000000E-03   0.00000000    
  -9.52500012E-03   0.00000000    
  -9.51000024E-03   0.00000000    
  -9.49500035E-03   0.00000000    
  -9.47999954E-03   0.00000000    
  -9.46499966E-03   0.00000000    
  -9.44999978E-03   0.00000000    
  -9.43499990E-03   0.00000000    
  -9.42000002E-03   0.00000000    
  -9.40500014E-03   0.00000000    
  -9.39000025E-03   0.00000000    
  -9.37500037E-03   0.00000000    
  -9.35999956E-03   0.00000000    
  -9.34499968E-03   0.00000000    
  -9.32999980E-03   0.00000000    
  -9.31499992E-03   0.00000000    
  -9.30000003E-03   0.00000000    
  -9.28500015E-03   0.00000000    
  -9.27000027E-03   0.00000000    
  -9.25500039E-03   0.00000000    
  -9.23999958E-03   0.00000000    
  -9.22499970E-03   0.00000000    
  -9.20999981E-03   0.00000000    
  -9.19499993E-03   0.00000000    
  -9.18000005E-03   0.00000000    
  -9.16500017E-03   0.00000000    
  -9.15000029E-03   0.00000000    
  -9.13500041E-03   0.00000000    
  -9.11999959E-03   0.00000000    
  -9.10499971E-03   0.00000000    
  -9.08999983E-03   0.00000000    
  -9.07499995E-03   0.00000000    
  -9.06000007E-03   0.00000000    
  -9.04500019E-03   0.00000000    
  -9.03000031E-03   0.00000000    
  -9.01500043E-03   0.00000000    
  -8.99999961E-03   0.00000000    
  -8.98499973E-03   0.00000000    
  -8.96999985E-03   0.00000000    
  -8.95499997E-03   0.00000000    
  -8.94000009E-03   0.00000000    
  -8.92500021E-03   0.00000000    
  -8.91000032E-03   0.00000000    
  -8.89500044E-03   0.00000000    
  -8.87999963E-03   0.00000000    
  -8.86499975E-03   0.00000000    
  -8.84999987E-03   0.00000000    
  -8.83499999E-03   0.00000000    
  -8.82000010E-03   0.00000000    
  -8.80500022E-03   0.00000000    
  -8.79000034E-03   0.00000000    
  -8.77500046E-03   0.00000000    
  -8.75999965E-03   0.00000000    
  -8.74499977E-03   0.00000000    
  -8.72999988E-03   0.00000000    
  -8.71500000E-03   0.00000000    
  -8.70000012E-03   0.00000000    
  -8.68500024E-03   0.00000000    
  -8.67000036E-03   0.00000000    
  -8.65499955E-03   0.00000000    
  -8.63999967E-03   0.00000000    
  -8.62499978E-03   0.00000000    
  -8.60999990E-03   0.00000000    
  -8.59500002E-03   0.00000000    
  -8.58000014E-03   0.00000000    
  -8.56500026E-03   0.00000000    
  -8.55000038E-03   0.00000000    
  -8.53499956E-03   0.00000000    
  -8.51999968E-03   0.00000000    
  -8.50499980E-03   0.00000000    
  -8.48999992E-03   0.00000000    
  -8.47500004E-03   0.00000000    
  -8.46000016E-03   0.00000000    
  -8.44500028E-03   0.00000000    
  -8.43000039E-03   0.00000000    
  -8.41499958E-03   0.00000000    
  -8.39999970E-03   0.00000000    
  -8.38499982E-03   0.00000000    
  -8.36999994E-03   0.00000000    
  -8.35500006E-03   0.00000000    
  -8.34000017E-03   0.00000000    
  -8.32500029E-03   0.00000000    
  -8.31000041E-03   0.00000000    
  -8.29499960E-03   0.00000000    
  -8.27999972E-03   0.00000000    
  -8.26499984E-03   0.00000000    
  -8.24999996E-03   0.00000000    
  -8.23500007E-03   0.00000000    
  -8.22000019E-03   0.00000000    
  -8.20500031E-03   0.00000000    
  -8.19000043E-03   0.00000000    
  -8.17499962E-03   0.00000000    
  -8.15999974E-03   0.00000000    
  -8.14499985E-03   0.00000000    
  -8.12999997E-03   0.00000000    
  -8.11500009E-03   0.00000000    
  -8.10000021E-03   0.00000000    
  -8.08500033E-03   0.00000000    
  -8.07000045E-03   0.00000000    
  -8.05499963E-03   0.00000000    
  -8.03999975E-03   0.00000000    
  -8.02499987E-03   0.00000000    
  -8.00999999E-03   0.00000000    
  -7.99500011E-03   0.00000000    
  -7.98000023E-03   0.00000000    
  -7.96500035E-03   0.00000000    
  -7.95000046E-03   0.00000000    
  -7.93499965E-03   0.00000000    
  -7.91999977E-03   0.00000000    
  -7.90499989E-03   0.00000000    
  -7.89000001E-03   0.00000000    
  -7.87500013E-03   0.00000000    
  -7.86000025E-03   0.00000000    
  -7.84500036E-03   0.00000000    
  -7.82999955E-03   0.00000000    
  -7.81499967E-03   0.00000000    
  -7.79999979E-03   0.00000000    
  -7.78499991E-03   0.00000000    
  -7.77000003E-03   0.00000000    
  -7.75500014E-03   0.00000000    
  -7.73999980E-03   0.00000000    
  -7.72499992E-03   0.00000000    
  -7.71000003E-03   0.00000000    
  -7.69500015E-03   0.00000000    
  -7.67999981E-03   0.00000000    
  -7.66499992E-03   0.00000000    
  -7.65000004E-03   0.00000000    
  -7.63500016E-03   0.00000000    
  -7.61999981E-03   0.00000000    
  -7.60499993E-03   0.00000000    
  -7.59000005E-03   0.00000000    
  -7.57500017E-03   0.00000000    
  -7.55999982E-03   0.00000000    
  -7.54499994E-03   0.00000000    
  -7.53000006E-03   0.00000000    
  -7.51500018E-03   0.00000000    
  -7.49999983E-03   0.00000000    
  -7.48499995E-03   0.00000000    
  -7.47000007E-03   0.00000000    
  -7.45500019E-03   0.00000000    
  -7.43999984E-03   0.00000000    
  -7.42499996E-03   0.00000000    
  -7.41000008E-03   0.00000000    
  -7.39500020E-03   0.00000000    
  -7.37999985E-03   0.00000000    
  -7.36499997E-03   0.00000000    
  -7.35000009E-03   0.00000000    
  -7.33500021E-03   0.00000000    
  -7.31999986E-03   0.00000000    
  -7.30499998E-03   0.00000000    
  -7.29000010E-03   0.00000000    
  -7.27500021E-03   0.00000000    
  -7.25999987E-03   0.00000000    
  -7.24499999E-03   0.00000000    
  -7.23000010E-03   0.00000000    
  -7.21500022E-03   0.00000000    
  -7.19999988E-03   0.00000000    
  -7.18499999E-03   0.00000000    
  -7.17000011E-03   0.00000000    
  -7.15500023E-03   0.00000000    
  -7.13999989E-03   0.00000000    
  -7.12500000E-03   0.00000000    
  -7.11000012E-03   0.00000000    
  -7.09499978E-03   0.00000000    
  -7.07999989E-03   0.00000000    
  -7.06500001E-03   0.00000000    
  -7.05000013E-03   0.00000000    
  -7.03499978E-03   0.00000000    
  -7.01999990E-03   0.00000000    
  -7.00500002E-03   0.00000000    
  -6.99000014E-03   0.00000000    
  -6.97499979E-03   0.00000000    
  -6.95999991E-03   0.00000000    
  -6.94500003E-03   0.00000000    
  -6.93000015E-03   0.00000000    
  -6.91499980E-03   0.00000000    
  -6.89999992E-03   0.00000000    
  -6.88500004E-03   0.00000000    
  -6.87000016E-03   0.00000000    
  -6.85499981E-03   0.00000000    
  -6.83999993E-03   0.00000000    
  -6.82500005E-03   0.00000000    
  -6.81000017E-03   0.00000000    
  -6.79499982E-03   0.00000000    
  -6.77999994E-03   0.00000000    
  -6.76500006E-03   0.00000000    
  -6.75000018E-03   0.00000000    
  -6.73499983E-03   0.00000000    
  -6.71999995E-03   0.00000000    
  -6.70500007E-03   0.00000000    
  -6.69000018E-03   0.00000000    
  -6.67499984E-03   0.00000000    
  -6.65999996E-03   0.00000000    
  -6.64500007E-03   0.00000000    
  -6.63000019E-03   0.00000000    
  -6.61499985E-03   0.00000000    
  -6.59999996E-03   0.00000000    
  -6.58500008E-03   0.00000000    
  -6.57000020E-03   0.00000000    
  -6.55499985E-03   0.00000000    
  -6.53999997E-03   0.00000000    
  -6.52500009E-03   0.00000000    
  -6.51000021E-03   0.00000000    
  -6.49499986E-03   0.00000000    
  -6.47999998E-03   0.00000000    
  -6.46500010E-03   0.00000000    
  -6.45000022E-03   0.00000000    
  -6.43499987E-03   0.00000000    
  -6.41999999E-03   0.00000000    
  -6.40500011E-03   0.00000000    
  -6.39000023E-03   0.00000000    
  -6.37499988E-03   0.00000000    
  -6.36000000E-03   0.00000000    
  -6.34500012E-03   0.00000000    
  -6.32999977E-03   0.00000000    
  -6.31499989E-03   0.00000000    
  -6.30000001E-03   0.00000000    
  -6.28500013E-03   0.00000000    
  -6.26999978E-03   0.00000000    
  -6.25499990E-03   0.00000000    
  -6.24000002E-03   0.00000000    
  -6.22500014E-03   0.00000000    
  -6.20999979E-03   0.00000000    
  -6.19499991E-03   0.00000000    
  -6.18000003E-03   0.00000000    
  -6.16500014E-03   0.00000000    
  -6.14999980E-03   0.00000000    
  -6.13499992E-03   0.00000000    
  -6.12000003E-03   0.00000000    
  -6.10500015E-03   0.00000000    
  -6.08999981E-03   0.00000000    
  -6.07499992E-03   0.00000000    
  -6.06000004E-03   0.00000000    
  -6.04500016E-03   0.00000000    
  -6.02999981E-03   0.00000000    
  -6.01499993E-03   0.00000000    
  -6.00000005E-03   0.00000000    
  -5.98500017E-03   0.00000000    
  -5.96999982E-03   0.00000000    
  -5.95499994E-03   0.00000000    
  -5.94000006E-03   0.00000000    
  -5.92500018E-03   0.00000000    
  -5.90999983E-03   0.00000000    
  -5.89499995E-03   0.00000000    
  -5.88000007E-03   0.00000000    
  -5.86500019E-03   0.00000000    
  -5.84999984E-03   0.00000000    
  -5.83499996E-03   0.00000000    
  -5.82000008E-03   0.00000000    
  -5.80500020E-03   0.00000000    
  -5.78999985E-03   0.00000000    
  -5.77499997E-03   0.00000000    
  -5.76000009E-03   0.00000000    
  -5.74500021E-03   0.00000000    
  -5.72999986E-03   0.00000000    
  -5.71499998E-03   0.00000000    
  -5.70000010E-03   0.00000000    
  -5.68500021E-03   0.00000000    
  -5.66999987E-03   0.00000000    
  -5.65499999E-03   0.00000000    
  -5.64000010E-03   0.00000000    
  -5.62500022E-03   0.00000000    
  -5.60999988E-03   0.00000000    
  -5.59500000E-03   0.00000000    
  -5.58000011E-03   0.00000000    
  -5.56500023E-03   0.00000000    
  -5.54999989E-03   0.00000000    
  -5.53500000E-03   0.00000000    
  -5.52000012E-03   0.00000000    
  -5.50499978E-03   0.00000000    
  -5.48999989E-03   0.00000000    
  -5.47500001E-03   0.00000000    
  -5.46000013E-03   0.00000000    
  -5.44499978E-03   0.00000000    
  -5.42999990E-03   0.00000000    
  -5.41500002E-03   0.00000000    
  -5.40000014E-03   0.00000000    
  -5.38499979E-03   0.00000000    
  -5.36999991E-03   0.00000000    
  -5.35500003E-03   0.00000000    
  -5.34000015E-03   0.00000000    
  -5.32499980E-03   0.00000000    
  -5.30999992E-03   0.00000000    
  -5.29500004E-03   0.00000000    
  -5.28000016E-03   0.00000000    
  -5.26499981E-03   0.00000000    
  -5.24999993E-03   0.00000000    
  -5.23500005E-03   0.00000000    
  -5.22000017E-03   0.00000000    
  -5.20499982E-03   0.00000000    
  -5.18999994E-03   0.00000000    
  -5.17500006E-03   0.00000000    
  -5.16000018E-03   0.00000000    
  -5.14499983E-03   0.00000000    
  -5.12999995E-03   0.00000000    
  -5.11500007E-03   0.00000000    
  -5.10000018E-03   0.00000000    
  -5.08499984E-03   0.00000000    
  -5.06999996E-03   0.00000000    
  -5.05500007E-03   0.00000000    
  -5.04000019E-03   0.00000000    
  -5.02499985E-03   0.00000000    
  -5.00999996E-03   0.00000000    
  -4.99500008E-03   0.00000000    
  -4.98000020E-03   0.00000000    
  -4.96499985E-03   0.00000000    
  -4.94999997E-03   0.00000000    
  -4.93500009E-03  -0.00000000    
  -4.92000021E-03  -0.00000000    
  -4.90499986E-03  -0.00000000    
  -4.88999998E-03  -0.00000000    
  -4.87500010E-03  -0.00000000    
  -4.86000022E-03  -0.00000000    
  -4.84499987E-03  -0.00000000    
  -4.82999999E-03  -0.00000000    
  -4.81500011E-03  -0.00000000    
  -4.80000023E-03  -0.00000000    
  -4.78499988E-03  -0.00000000    
  -4.77000000E-03  -0.00000000    
  -4.75500012E-03  -0.00000000    
  -4.73999977E-03   0.00000000    
  -4.72499989E-03   0.00000000    
  -4.71000001E-03   0.00000000    
  -4.69500013E-03   0.00000000    
  -4.67999978E-03   1.27119070E-38
  -4.66499990E-03   1.55025005E-38
  -4.65000002E-03   1.80809036E-38
  -4.63500014E-03   2.00180642E-38
  -4.61999979E-03   2.16287321E-38
  -4.60499991E-03   2.31149619E-38
  -4.59000003E-03   2.32558246E-38
  -4.57500014E-03   2.21258722E-38
  -4.55999980E-03   1.91557556E-38
  -4.54499992E-03  -0.00000000    
  -4.53000003E-03  -2.52793823E-38
  -4.51500015E-03  -5.54074198E-38
  -4.49999981E-03  -8.93325137E-38
  -4.48499992E-03  -1.25339399E-37
  -4.47000004E-03  -1.61298590E-37
  -4.45500016E-03  -1.95292622E-37
  -4.43999982E-03  -2.23253123E-37
  -4.42499993E-03  -2.32458420E-37
  -4.41000005E-03  -2.40374075E-37
  -4.39500017E-03  -2.46384995E-37
  -4.37999982E-03  -2.28202419E-37
  -4.36499994E-03  -1.93363942E-37
  -4.35000006E-03  -1.40894664E-37
  -4.33500018E-03  -6.32279151E-38
  -4.31999983E-03   2.39972838E-38
  -4.30499995E-03   1.26472915E-37
  -4.29000007E-03   2.41506369E-37
  -4.27500019E-03   3.64983364E-37
  -4.25999984E-03   4.92309692E-37
  -4.24499996E-03   6.18123021E-37
  -4.23000008E-03   7.34346761E-37
  -4.21500020E-03   8.33103999E-37
  -4.19999985E-03   8.93161902E-37
  -4.18499997E-03   9.18001162E-37
  -4.17000009E-03   9.01009263E-37
  -4.15500021E-03   8.36714282E-37
  -4.13999986E-03   7.21351321E-37
  -4.12499998E-03   5.52914483E-37
  -4.11000010E-03   3.31879896E-37
  -4.09500021E-03   6.17332341E-38
  -4.07999987E-03  -2.52441318E-37
  -4.06499999E-03  -6.00591186E-37
  -4.05000011E-03  -9.64606959E-37
  -4.03500022E-03  -1.34356246E-36
  -4.01999988E-03  -1.72194407E-36
  -4.00500000E-03  -2.06375633E-36
  -3.99000011E-03  -2.35702868E-36
  -3.97500023E-03  -2.58117653E-36
  -3.95999989E-03  -2.71632340E-36
  -3.94500000E-03  -2.74424175E-36
  -3.93000012E-03  -2.64946734E-36
  -3.91499978E-03  -2.42049400E-36
  -3.89999989E-03  -2.05075784E-36
  -3.88500001E-03  -1.53950568E-36
  -3.86999990E-03  -8.92706581E-37
  -3.85500002E-03  -1.23528518E-37
  -3.83999990E-03   7.47096335E-37
  -3.82500002E-03   1.69178795E-36
  -3.80999991E-03   2.66637278E-36
  -3.79500003E-03   3.65756746E-36
  -3.77999991E-03   4.58929955E-36
  -3.76500003E-03   5.42120467E-36
  -3.74999992E-03   6.10127916E-36
  -3.73500003E-03   6.57833013E-36
  -3.71999992E-03   6.80448580E-36
  -3.70500004E-03   6.73786991E-36
  -3.68999992E-03   6.34524231E-36
  -3.67500004E-03   5.60476589E-36
  -3.65999993E-03   4.50835015E-36
  -3.64500005E-03   3.06396398E-36
  -3.62999993E-03   1.29685317E-36
  -3.61500005E-03  -7.50093320E-37
  -3.59999994E-03  -3.01461388E-36
  -3.58500006E-03  -5.41785160E-36
  -3.56999994E-03  -7.86741709E-36
  -3.55500006E-03  -1.02484733E-35
  -3.53999995E-03  -1.24453197E-35
  -3.52500007E-03  -1.43337675E-35
  -3.50999995E-03  -1.57893486E-35
  -3.49500007E-03  -1.66931089E-35
  -3.47999996E-03  -1.69378333E-35
  -3.46500007E-03  -1.64344054E-35
  -3.44999996E-03  -1.51180526E-35
  -3.43500008E-03  -1.29541343E-35
  -3.41999996E-03  -9.94325876E-36
  -3.40500008E-03  -6.12527119E-36
  -3.38999997E-03  -1.58187019E-36
  -3.37500009E-03   3.56268920E-36
  -3.35999997E-03   9.14234131E-36
  -3.34500009E-03   1.49522724E-35
  -3.32999998E-03   2.07541578E-35
  -3.31500010E-03   2.62834682E-35
  -3.29999998E-03   3.12586907E-35
  -3.28500010E-03   3.53924101E-35
  -3.26999999E-03   3.84039658E-35
  -3.25500011E-03   4.00331390E-35
  -3.23999999E-03   4.00543702E-35
  -3.22500011E-03   3.82908503E-35
  -3.21000000E-03   3.46280001E-35
  -3.19500011E-03   2.90253490E-35
  -3.18000000E-03   2.15262503E-35
  -3.16499989E-03   1.22649534E-35
  -3.15000000E-03   1.47006827E-36
  -3.13499989E-03  -1.05359737E-35
  -3.12000001E-03  -2.33417994E-35
  -3.10499989E-03  -3.64565425E-35
  -3.09000001E-03  -4.93239266E-35
  -3.07499990E-03  -6.13408883E-35
  -3.06000002E-03  -7.18804120E-35
  -3.04499990E-03  -8.03176834E-35
  -3.03000002E-03  -8.60588942E-35
  -3.01499991E-03  -8.85715421E-35
  -3.00000003E-03  -8.74149486E-35
  -2.98499991E-03  -8.22697272E-35
  -2.97000003E-03  -7.29646735E-35
  -2.95499992E-03  -5.94995866E-35
  -2.94000003E-03  -4.20623304E-35
  -2.92499992E-03  -2.10388378E-35
  -2.91000004E-03   2.98481792E-36
  -2.89499993E-03   2.92289770E-35
  -2.88000004E-03   5.67368190E-35
  -2.86499993E-03   8.44006608E-35
  -2.85000005E-03   1.10997707E-34
  -2.83499993E-03   1.35234575E-34
  -2.82000005E-03   1.55799574E-34
  -2.80499994E-03   1.71420700E-34
  -2.79000006E-03   1.80927740E-34
  -2.77499994E-03   1.83315497E-34
  -2.76000006E-03   1.77805528E-34
  -2.74499995E-03   1.63903367E-34
  -2.73000007E-03   1.41448280E-34
  -2.71499995E-03   1.10652658E-34
  -2.70000007E-03   7.21277020E-35
  -2.68499996E-03   2.68928197E-35
  -2.67000007E-03  -2.36329308E-35
  -2.65499996E-03  -7.76582192E-35
  -2.64000008E-03  -1.33066672E-34
  -2.62499996E-03  -1.87483853E-34
  -2.61000008E-03  -2.38362543E-34
  -2.59499997E-03  -2.83083698E-34
  -2.58000009E-03  -3.19070332E-34
  -2.56499997E-03  -3.43910341E-34
  -2.55000009E-03  -3.55482762E-34
  -2.53499998E-03  -3.52082392E-34
  -2.52000010E-03  -3.32536768E-34
  -2.50499998E-03  -2.96309341E-34
  -2.49000010E-03  -2.43582496E-34
  -2.47499999E-03  -1.75314559E-34
  -2.46000011E-03  -9.32658512E-35
  -2.44499999E-03   0.00000000    
  -2.43000011E-03   1.01213783E-34
  -2.41500000E-03   2.06384803E-34
  -2.40000011E-03   3.11027517E-34
  -2.38500000E-03   4.10271819E-34
  -2.36999989E-03   4.99066963E-34
  -2.35500000E-03   5.72401556E-34
  -2.33999989E-03   6.25541798E-34
  -2.32500001E-03   6.54278227E-34
  -2.30999989E-03   6.55170409E-34
  -2.29500001E-03   6.25777861E-34
  -2.27999990E-03   5.64864800E-34
  -2.26500002E-03   4.72566545E-34
  -2.24999990E-03   3.50506380E-34
  -2.23500002E-03   2.01852377E-34
  -2.21999991E-03   3.13065398E-35
  -2.20500003E-03  -1.54980240E-34
  -2.18999991E-03  -3.49569520E-34
  -2.17500003E-03  -5.43972500E-34
  -2.15999992E-03  -7.28959312E-34