  -1.49999997E-02   0.00000000    
  -1.49849998E-02   0.00000000    
  -1.49699999E-02   0.00000000    
  -1.49550000E-02   0.00000000    
  -1.49400001E-02   0.00000000    
  -1.49250003E-02   0.00000000    
  -1.49100004E-02   0.00000000    
  -1.48949996E-02   0.00000000    
  -1.48799997E-02   0.00000000    
  -1.48649998E-02   0.00000000    
  -1.48499999E-02   0.00000000    
  -1.48350000E-02   0.00000000    
  -1.48200002E-02   0.00000000    
  -1.48050003E-02   0.00000000    
  -1.47900004E-02   0.00000000    
  -1.47749996E-02   0.00000000    
  -1.47599997E-02   0.00000000    
  -1.47449998E-02   0.00000000    
  -1.47299999E-02   0.00000000    
  -1.47150001E-02   0.00000000    
  -1.47000002E-02   0.00000000    
  -1.46850003E-02   0.00000000    
  -1.46700004E-02   0.00000000    
  -1.46549996E-02   0.00000000    
  -1.46399997E-02   0.00000000    
  -1.46249998E-02   0.00000000    
  -1.46100000E-02   0.00000000    
  -1.45950001E-02   0.00000000    
  -1.45800002E-02   0.00000000    
  -1.45650003E-02   0.00000000    
  -1.45500004E-02   0.00000000    
  -1.45349996E-02   0.00000000    
  -1.45199997E-02   0.00000000    
  -1.45049999E-02   0.00000000    
  -1.44900000E-02   0.00000000    
  -1.44750001E-02   0.00000000    
  -1.44600002E-02   0.00000000    
  -1.44450003E-02   0.00000000    
  -1.44300004E-02   0.00000000    
  -1.44149996E-02   0.00000000    
  -1.43999998E-02   0.00000000    
  -1.43849999E-02   0.00000000    
  -1.43700000E-02   0.00000000    
  -1.43550001E-02   0.00000000    
  -1.43400002E-02   0.00000000    
  -1.43250003E-02   0.00000000    
  -1.43100005E-02   0.00000000    
  -1.42949997E-02   0.00000000    
  -1.42799998E-02   0.00000000    
  -1.42649999E-02   0.00000000    
  -1.42500000E-02   0.00000000    
  -1.42350001E-02   0.00000000    
  -1.42200002E-02   0.00000000    
  -1.42050004E-02   0.00000000    
  -1.41899996E-02   0.00000000    
  -1.41749997E-02   0.00000000    
  -1.41599998E-02   0.00000000    
  -1.41449999E-02   0.00000000    
  -1.41300000E-02   0.00000000    
  -1.41150001E-02   0.00000000    
  -1.41000003E-02   0.00000000    
  -1.40850004E-02   0.00000000    
  -1.40699996E-02   0.00000000    
  -1.40549997E-02   0.00000000    
  -1.40399998E-02   0.00000000    
  -1.40249999E-02   0.00000000    
  -1.40100000E-02   0.00000000    
  -1.39950002E-02   0.00000000    
  -1.39800003E-02   0.00000000    
  -1.39650004E-02   0.00000000    
  -1.39499996E-02   0.00000000    
  -1.39349997E-02   0.00000000    
  -1.39199998E-02   0.00000000    
  -1.39049999E-02   0.00000000    
  -1.38900001E-02   0.00000000    
  -1.38750002E-02   0.00000000    
  -1.38600003E-02   0.00000000    
  -1.38450004E-02   0.00000000    
  -1.38299996E-02   0.00000000    
  -1.38149997E-02   0.00000000    
  -1.37999998E-02   0.00000000    
  -1.37850000E-02   0.00000000    
  -1.37700001E-02   0.00000000    
  -1.37550002E-02   0.00000000    
  -1.37400003E-02   0.00000000    
  -1.37250004E-02   0.00000000    
  -1.37099996E-02   0.00000000    
  -1.36949997E-02   0.00000000    
  -1.36799999E-02   0.00000000    
  -1.36650000E-02   0.00000000    
  -1.36500001E-02   0.00000000    
  -1.36350002E-02   0.00000000    
  -1.36200003E-02   0.00000000    
  -1.36050005E-02   0.00000000    
  -1.35899996E-02   0.00000000    
  -1.35749998E-02   0.00000000    
  -1.35599999E-02   0.00000000    
  -1.35450000E-02   0.00000000    
  -1.35300001E-02   0.00000000    
  -1.35150002E-02   0.00000000    
  -1.35000004E-02   0.00000000    
  -1.34849995E-02   0.00000000    
  -1.34699997E-02   0.00000000    
  -1.34549998E-02   0.00000000    
  -1.34399999E-02   0.00000000    
  -1.34250000E-02   0.00000000    
  -1.34100001E-02   0.00000000    
  -1.33950002E-02   0.00000000    
  -1.33800004E-02   0.00000000    
  -1.33649996E-02   0.00000000    
  -1.33499997E-02   0.00000000    
  -1.33349998E-02   0.00000000    
  -1.33199999E-02   0.00000000    
  -1.33050000E-02   0.00000000    
  -1.32900001E-02   0.00000000    
  -1.32750003E-02   0.00000000    
  -1.32600004E-02   0.00000000    
  -1.32449996E-02   0.00000000    
  -1.32299997E-02   0.00000000    
  -1.32149998E-02   0.00000000    
  -1.31999999E-02   0.00000000    
  -1.31850000E-02   0.00000000    
  -1.31700002E-02   0.00000000    
  -1.31550003E-02   0.00000000    
  -1.31400004E-02   0.00000000    
  -1.31249996E-02   0.00000000    
  -1.31099997E-02   0.00000000    
  -1.30949998E-02   0.00000000    
  -1.30799999E-02   0.00000000    
  -1.30650001E-02   0.00000000    
  -1.30500002E-02   0.00000000    
  -1.30350003E-02   0.00000000    
  -1.30200004E-02   0.00000000    
  -1.30049996E-02   0.00000000    
  -1.29899997E-02   0.00000000    
  -1.29749998E-02   0.00000000    
  -1.29600000E-02   0.00000000    
  -1.29450001E-02   0.00000000    
  -1.29300002E-02   0.00000000    
  -1.29150003E-02   0.00000000    
  -1.29000004E-02   0.00000000    
  -1.28849996E-02   0.00000000    
  -1.28699997E-02   0.00000000    
  -1.28549999E-02   0.00000000    
  -1.28400000E-02   0.00000000    
  -1.28250001E-02   0.00000000    
  -1.28100002E-02   0.00000000    
  -1.27950003E-02   0.00000000    
  -1.27800005E-02   0.00000000    
  -1.27649996E-02   0.00000000    
  -1.27499998E-02   0.00000000    
  -1.27349999E-02   0.00000000    
  -1.27200000E-02   0.00000000    
  -1.27050001E-02   0.00000000    
  -1.26900002E-02   0.00000000    
  -1.26750004E-02   0.00000000    
  -1.26599995E-02   0.00000000    
  -1.26449997E-02   0.00000000    
  -1.26299998E-02   0.00000000    
  -1.26149999E-02   0.00000000    
  -1.26000000E-02   0.00000000    
  -1.25850001E-02   0.00000000    
  -1.25700003E-02   0.00000000    
  -1.25550004E-02   0.00000000    
  -1.25399996E-02   0.00000000    
  -1.25249997E-02   0.00000000    
  -1.25099998E-02   0.00000000    
  -1.24949999E-02   0.00000000    
  -1.24800000E-02   0.00000000    
  -1.24650002E-02   0.00000000    
  -1.24500003E-02   0.00000000    
  -1.24350004E-02   0.00000000    
  -1.24199996E-02   0.00000000    
  -1.24049997E-02   0.00000000    
  -1.23899998E-02   0.00000000    
  -1.23749999E-02   0.00000000    
  -1.23600001E-02   0.00000000    
  -1.23450002E-02   0.00000000    
  -1.23300003E-02   0.00000000    
  -1.23150004E-02   0.00000000    
  -1.22999996E-02   0.00000000    
  -1.22849997E-02   0.00000000    
  -1.22699998E-02   0.00000000    
  -1.22550000E-02   0.00000000    
  -1.22400001E-02   0.00000000    
  -1.22250002E-02   0.00000000    
  -1.22100003E-02   0.00000000    
  -1.21950004E-02   0.00000000    
  -1.21799996E-02   0.00000000    
  -1.21649997E-02   0.00000000    
  -1.21499998E-02   0.00000000    
  -1.21350000E-02   0.00000000    
  -1.21200001E-02   0.00000000    
  -1.21050002E-02   0.00000000    
  -1.20900003E-02   0.00000000    
  -1.20750004E-02   0.00000000    
  -1.20599996E-02   0.00000000    
  -1.20449997E-02   0.00000000    
  -1.20299999E-02   0.00000000    
  -1.20150000E-02   0.00000000    
  -1.20000001E-02   0.00000000    
  -1.19850002E-02   0.00000000    
  -1.19700003E-02   0.00000000    
  -1.19550005E-02   0.00000000    
  -1.19399996E-02   0.00000000    
  -1.19249998E-02   0.00000000    
  -1.19099999E-02   0.00000000    
  -1.18950000E-02   0.00000000    
  -1.18800001E-02   0.00000000    
  -1.18650002E-02   0.00000000    
  -1.18500004E-02   0.00000000    
  -1.18349995E-02   0.00000000    
  -1.18199997E-02   0.00000000    
  -1.18049998E-02   0.00000000    
  -1.17899999E-02   0.00000000    
  -1.17750000E-02   0.00000000    
  -1.17600001E-02   0.00000000    
  -1.17450003E-02   0.00000000    
  -1.17300004E-02   0.00000000    
  -1.17149996E-02   0.00000000    
  -1.16999997E-02   0.00000000    
  -1.16849998E-02   0.00000000    
  -1.16699999E-02   0.00000000    
  -1.16550000E-02   0.00000000    
  -1.16400002E-02   0.00000000    
  -1.16250003E-02   0.00000000    
  -1.16100004E-02   0.00000000    
  -1.15949996E-02   0.00000000    
  -1.15799997E-02   0.00000000    
  -1.15649998E-02   0.00000000    
  -1.15499999E-02   0.00000000    
  -1.15350001E-02   0.00000000    
  -1.15200002E-02   0.00000000    
  -1.15050003E-02   0.00000000    
  -1.14900004E-02   0.00000000    
  -1.14749996E-02   0.00000000    
  -1.14599997E-02   0.00000000    
  -1.14449998E-02   0.00000000    
  -1.14300000E-02   0.00000000    
  -1.14150001E-02   0.00000000    
  -1.14000002E-02   0.00000000    
  -1.13850003E-02   0.00000000    
  -1.13700004E-02   0.00000000    
  -1.13549996E-02   0.00000000    
  -1.13399997E-02   0.00000000    
  -1.13249999E-02   0.00000000    
  -1.13100000E-02   0.00000000    
  -1.12950001E-02   0.00000000    
  -1.12800002E-02   0.00000000    
  -1.12650003E-02   0.00000000    
  -1.12500004E-02   0.00000000    
  -1.12349996E-02   0.00000000    
  -1.12199998E-02   0.00000000    
  -1.12049999E-02   0.00000000    
  -1.11900000E-02   0.00000000    
  -1.11750001E-02   0.00000000    
  -1.11600002E-02   0.00000000    
  -1.11450003E-02   0.00000000    
  -1.11300005E-02   0.00000000    
  -1.11149997E-02   0.00000000    
  -1.10999998E-02   0.00000000    
  -1.10849999E-02   0.00000000    
  -1.10700000E-02   0.00000000    
  -1.10550001E-02   0.00000000    
  -1.10400002E-02   0.00000000    
  -1.10250004E-02   0.00000000    
  -1.10099996E-02   0.00000000    
  -1.09949997E-02   0.00000000    
  -1.09799998E-02   0.00000000    
  -1.09649999E-02   0.00000000    
  -1.09500000E-02   0.00000000    
  -1.09350001E-02   0.00000000    
  -1.09200003E-02   0.00000000    
  -1.09050004E-02   0.00000000    
  -1.08899996E-02   0.00000000    
  -1.08749997E-02   0.00000000    
  -1.08599998E-02   0.00000000    
  -1.08449999E-02   0.00000000    
  -1.08300000E-02   0.00000000    
  -1.08150002E-02   0.00000000    
  -1.08000003E-02   0.00000000    
  -1.07850004E-02   0.00000000    
  -1.07699996E-02   0.00000000    
  -1.07549997E-02   0.00000000    
  -1.07399998E-02   0.00000000    
  -1.07249999E-02   0.00000000    
  -1.07100001E-02   0.00000000    
  -1.06950002E-02   0.00000000    
  -1.06800003E-02   0.00000000    
  -1.06650004E-02   0.00000000    
  -1.06499996E-02   0.00000000    
  -1.06349997E-02   0.00000000    
  -1.06199998E-02   0.00000000    
  -1.06050000E-02   0.00000000    
  -1.05900001E-02   0.00000000    
  -1.05750002E-02   0.00000000    
  -1.05600003E-02   0.00000000    
  -1.05450004E-02   0.00000000    
  -1.05299996E-02   0.00000000    
  -1.05149997E-02   0.00000000    
  -1.04999999E-02   0.00000000    
  -1.04850000E-02   0.00000000    
  -1.04700001E-02   0.00000000    
  -1.04550002E-02   0.00000000    
  -1.04400003E-02   0.00000000    
  -1.04250005E-02   0.00000000    
  -1.04099996E-02   0.00000000    
  -1.03949998E-02   0.00000000    
  -1.03799999E-02   0.00000000    
  -1.03650000E-02   0.00000000    
  -1.03500001E-02   0.00000000    
  -1.03350002E-02   0.00000000    
  -1.03200004E-02   0.00000000    
  -1.03049995E-02   0.00000000    
  -1.02899997E-02   0.00000000    
  -1.02749998E-02   0.00000000    
  -1.02599999E-02   0.00000000    
  -1.02450000E-02   0.00000000    
  -1.02300001E-02   0.00000000    
  -1.02150002E-02   0.00000000    
  -1.02000004E-02   0.00000000    
  -1.01849996E-02   0.00000000    
  -1.01699997E-02   0.00000000    
  -1.01549998E-02   0.00000000    
  -1.01399999E-02   0.00000000    
  -1.01250000E-02   0.00000000    
  -1.01100001E-02   0.00000000    
  -1.00950003E-02   0.00000000    
  -1.00800004E-02   0.00000000    
  -1.00649996E-02   0.00000000    
  -1.00499997E-02   0.00000000    
  -1.00349998E-02   0.00000000    
  -1.00199999E-02   0.00000000    
  -1.00050000E-02   0.00000000    
  -9.99000017E-03   0.00000000    
  -9.97500028E-03   0.00000000    
  -9.96000040E-03   0.00000000    
  -9.94499959E-03   0.00000000    
  -9.92999971E-03   0.00000000    
  -9.91499983E-03   0.00000000    
  -9.89999995E-03   0.00000000    
  -9.88500006E-03   0.00000000    
  -9.87000018E-03   0.00000000    
  -9.85500030E-03   0.00000000    
  -9.84000042E-03   0.00000000    
  -9.82499961E-03   0.00000000    
  -9.80999973E-03   0.00000000    
  -9.79499985E-03   0.00000000    
  -9.77999996E-03   0.00000000    
  -9.76500008E-03   0.00000000    
  -9.75000020E-03   0.00000000    
  -9.73500032E-03   0.00000000    
  -9.72000044E-03   0.00000000    
  -9.70499963E-03   0.00000000    
  -9.68999974E-03   0.00000000    
  -9.67499986E-03   0.00000000    
  -9.65999998E-03   0.00000000    
  -9.64500010E-03   0.00000000    
  -9.63000022E-03   0.00000000    
  -9.61500034E-03   0.00000000    
  -9.60000046E-03   0.00000000    
  -9.58499964E-03   0.00000000    
  -9.56999976E-03   0.00000000    
  -9.55499988E-03   0.00000000    
  -9.54000000E-03   0.00000000    
  -9.52500012E-03   0.00000000    
  -9.51000024E-03   0.00000000    
  -9.49500035E-03   0.00000000    
  -9.47999954E-03   0.00000000    
  -9.46499966E-03   0.00000000    
  -9.44999978E-03   0.00000000    
  -9.43499990E-03   0.00000000    
  -9.42000002E-03   0.00000000    
  -9.40500014E-03   0.00000000    
  -9.39000025E-03   0.00000000    
  -9.37500037E-03   0.00000000    
  -9.35999956E-03   0.00000000    
  -9.34499968E-03   0.00000000    
  -9.32999980E-03   0.00000000    
  -9.31499992E-03   0.00000000    
  -9.30000003E-03   0.00000000    
  -9.28500015E-03   0.00000000    
  -9.27000027E-03   0.00000000    
  -9.25500039E-03   0.00000000    
  -9.23999958E-03   0.00000000    
  -9.22499970E-03   0.00000000    
  -9.20999981E-03   0.00000000    
  -9.19499993E-03   0.00000000    
  -9.18000005E-03   0.00000000    
  -9.16500017E-03   0.00000000    
  -9.15000029E-03   0.00000000    
  -9.13500041E-03   0.00000000    
  -9.11999959E-03   0.00000000    
  -9.10499971E-03   0.00000000    
  -9.08999983E-03   0.00000000    
  -9.07499995E-03   0.00000000    
  -9.06000007E-03   0.00000000    
  -9.04500019E-03   0.00000000    
  -9.03000031E-03   0.00000000    
  -9.01500043E-03   0.00000000    
  -8.99999961E-03   0.00000000    
  -8.98499973E-03   0.00000000    
  -8.96999985E-03   0.00000000    
  -8.95499997E-03   0.00000000    
  -8.94000009E-03   0.00000000    
  -8.92500021E-03   0.00000000    
  -8.91000032E-03   0.00000000    
  -8.89500044E-03   0.00000000    
  -8.87999963E-03   0.00000000    
  -8.86499975E-03   0.00000000    
  -8.84999987E-03   0.00000000    
  -8.83499999E-03   0.00000000    
  -8.82000010E-03   0.00000000    
  -8.80500022E-03   0.00000000    
  -8.79000034E-03   0.00000000    
  -8.77500046E-03   0.00000000    
  -8.75999965E-03   0.00000000    
  -8.74499977E-03   0.00000000    
  -8.72999988E-03   0.00000000    
  -8.71500000E-03   0.00000000    
  -8.70000012E-03   0.00000000    
  -8.68500024E-03   0.00000000    
  -8.67000036E-03   0.00000000    
  -8.65499955E-03   0.00000000    
  -8.63999967E-03   0.00000000    
  -8.62499978E-03   0.00000000    
  -8.60999990E-03   0.00000000    
  -8.59500002E-03   0.00000000    
  -8.58000014E-03   0.00000000    
  -8.56500026E-03   0.00000000    
  -8.55000038E-03   0.00000000    
  -8.53499956E-03   0.00000000    
  -8.51999968E-03   0.00000000    
  -8.50499980E-03   0.00000000    
  -8.48999992E-03   0.00000000    
  -8.47500004E-03   0.00000000    
  -8.46000016E-03   0.00000000    
  -8.44500028E-03   0.00000000    
  -8.43000039E-03   0.00000000    
  -8.41499958E-03   0.00000000    
  -8.39999970E-03   0.00000000    
  -8.38499982E-03   0.00000000    
  -8.36999994E-03   0.00000000    
  -8.35500006E-03   0.00000000    
  -8.34000017E-03   0.00000000    
  -8.32500029E-03   0.00000000    
  -8.31000041E-03   0.00000000    
  -8.29499960E-03   0.00000000    
  -8.27999972E-03   0.00000000    
  -8.26499984E-03   0.00000000    
  -8.24999996E-03   0.00000000    
  -8.23500007E-03   0.00000000    
  -8.22000019E-03   0.00000000    
  -8.20500031E-03   0.00000000    
  -8.19000043E-03   0.00000000    
  -8.17499962E-03   0.00000000    
  -8.15999974E-03   0.00000000    
  -8.14499985E-03   0.00000000    
  -8.12999997E-03   0.00000000    
  -8.11500009E-03   0.00000000    
  -8.10000021E-03   0.00000000    
  -8.08500033E-03   0.00000000    
  -8.07000045E-03   0.00000000    
  -8.05499963E-03   0.00000000    
  -8.03999975E-03   0.00000000    
  -8.02499987E-03   0.00000000    
  -8.00999999E-03   0.00000000    
  -7.99500011E-03   0.00000000    
  -7.98000023E-03   0.00000000    
  -7.96500035E-03   0.00000000    
  -7.95000046E-03   0.00000000    
  -7.93499965E-03   0.00000000    
  -7.91999977E-03   0.00000000    
  -7.90499989E-03   0.00000000    
  -7.89000001E-03   0.00000000    
  -7.87500013E-03   0.00000000    
  -7.86000025E-03   0.00000000    
  -7.84500036E-03   0.00000000    
  -7.82999955E-03   0.00000000    
  -7.81499967E-03   0.00000000    
  -7.79999979E-03   0.00000000    
  -7.78499991E-03   0.00000000    
  -7.77000003E-03   0.00000000    
  -7.75500014E-03   0.00000000    
  -7.73999980E-03   0.00000000    
  -7.72499992E-03   0.00000000    
  -7.71000003E-03   0.00000000    
  -7.69500015E-03   0.00000000    
  -7.67999981E-03   0.00000000    
  -7.66499992E-03   0.00000000    
  -7.65000004E-03   0.00000000    
  -7.63500016E-03   0.00000000    
  -7.61999981E-03   0.00000000    
  -7.60499993E-03   0.00000000    
  -7.59000005E-03   0.00000000    
  -7.57500017E-03   0.00000000    
  -7.55999982E-03   0.00000000    
  -7.54499994E-03   0.00000000    
  -7.53000006E-03   0.00000000    
  -7.51500018E-03   0.00000000    
  -7.49999983E-03   0.00000000    
  -7.48499995E-03   0.00000000    
  -7.47000007E-03   0.00000000    
  -7.45500019E-03   0.00000000    
  -7.43999984E-03   0.00000000    
  -7.42499996E-03   0.00000000    
  -7.41000008E-03   0.00000000    
  -7.39500020E-03   0.00000000    
  -7.37999985E-03   0.00000000    
  -7.36499997E-03   0.00000000    
  -7.35000009E-03   0.00000000    
  -7.33500021E-03   0.00000000    
  -7.31999986E-03   0.00000000    
  -7.30499998E-03   0.00000000    
  -7.29000010E-03   0.00000000    
  -7.27500021E-03   0.00000000    
  -7.25999987E-03   0.00000000    
  -7.24499999E-03   0.00000000    
  -7.23000010E-03   0.00000000    
  -7.21500022E-03   0.00000000    
  -7.19999988E-03   0.00000000    
  -7.18499999E-03   0.00000000    
  -7.17000011E-03   0.00000000    
  -7.15500023E-03   0.00000000    
  -7.13999989E-03   0.00000000    
  -7.12500000E-03   0.00000000    
  -7.11000012E-03   0.00000000    
  -7.09499978E-03   0.00000000    
  -7.07999989E-03   0.00000000    
  -7.06500001E-03   0.00000000    
  -7.05000013E-03   0.00000000    
  -7.03499978E-03   0.00000000    
  -7.01999990E-03   0.00000000    
  -7.00500002E-03   0.00000000    
  -6.99000014E-03   0.00000000    
  -6.97499979E-03   0.00000000    
  -6.95999991E-03   0.00000000    
  -6.94500003E-03   0.00000000    
  -6.93000015E-03   0.00000000    
  -6.91499980E-03   0.00000000    
  -6.89999992E-03   0.00000000    
  -6.88500004E-03   0.00000000    
  -6.87000016E-03   0.00000000    
  -6.85499981E-03   0.00000000    
  -6.83999993E-03   0.00000000    
  -6.82500005E-03   0.00000000    
  -6.81000017E-03   0.00000000    
  -6.79499982E-03   0.00000000    
  -6.77999994E-03   0.00000000    
  -6.76500006E-03   0.00000000    
  -6.75000018E-03   0.00000000    
  -6.73499983E-03   0.00000000    
  -6.71999995E-03   0.00000000    
  -6.70500007E-03   0.00000000    
  -6.69000018E-03   0.00000000    
  -6.67499984E-03   0.00000000    
  -6.65999996E-03   0.00000000    
  -6.64500007E-03   0.00000000    
  -6.63000019E-03   0.00000000    
  -6.61499985E-03   0.00000000    
  -6.59999996E-03   0.00000000    
  -6.58500008E-03   0.00000000    
  -6.57000020E-03   0.00000000    
  -6.55499985E-03   0.00000000    
  -6.53999997E-03   0.00000000    
  -6.52500009E-03   0.00000000    
  -6.51000021E-03   0.00000000    
  -6.49499986E-03   0.00000000    
  -6.47999998E-03   0.00000000    
  -6.46500010E-03   0.00000000    
  -6.45000022E-03   0.00000000    
  -6.43499987E-03   0.00000000    
  -6.41999999E-03   0.00000000    
  -6.40500011E-03   0.00000000    
  -6.39000023E-03   0.00000000    
  -6.37499988E-03   0.00000000    
  -6.36000000E-03   0.00000000    
  -6.34500012E-03   0.00000000    
  -6.32999977E-03   0.00000000    
  -6.31499989E-03   0.00000000    
  -6.30000001E-03   0.00000000    
  -6.28500013E-03   0.00000000    
  -6.26999978E-03   0.00000000    
  -6.25499990E-03   0.00000000    
  -6.24000002E-03   0.00000000    
  -6.22500014E-03   0.00000000    
  -6.20999979E-03   0.00000000    
  -6.19499991E-03   0.00000000    
  -6.18000003E-03   0.00000000    
  -6.16500014E-03   0.00000000    
  -6.14999980E-03   0.00000000    
  -6.13499992E-03   1.33572989E-38
  -6.12000003E-03   1.67172370E-38
  -6.10500015E-03   2.01793355E-38
  -6.08999981E-03   2.36414353E-38
  -6.07499992E-03   2.69228755E-38
  -6.06000004E-03   2.97185753E-38
  -6.04500016E-03   3.16054153E-38
  -6.02999981E-03   3.19371026E-38
  -6.01499993E-03   3.02841309E-38
  -6.00000005E-03   2.64288814E-38
  -5.98500017E-03   2.01420385E-38
  -5.96999982E-03   0.00000000    
  -5.95499994E-03  -0.00000000    
  -5.94000006E-03  -1.65398929E-38
  -5.92500018E-03  -3.38461083E-38
  -5.90999983E-03  -5.27418194E-38
  -5.89499995E-03  -7.27604161E-38
  -5.88000007E-03  -9.20433704E-38
  -5.86500019E-03  -1.08488538E-37
  -5.84999984E-03  -7.69417898E-38
  -5.83499996E-03   2.50857032E-38
  -5.82000008E-03   1.79166367E-37
  -5.80500020E-03   3.89826883E-37
  -5.78999985E-03   6.55949919E-37
  -5.77499997E-03   9.73234383E-37
  -5.76000009E-03   1.33437720E-36
  -5.74500021E-03   1.72206963E-36
  -5.72999986E-03   2.12310914E-36
  -5.71499998E-03   2.52161170E-36
  -5.70000010E-03   2.89409934E-36
  -5.68500021E-03   3.22122868E-36
  -5.66999987E-03   3.45275206E-36
  -5.65499999E-03   3.61418667E-36
  -5.64000010E-03   3.60755155E-36
  -5.62500022E-03   3.29825319E-36
  -5.60999988E-03   2.74594591E-36
  -5.59500000E-03   1.97014206E-36
  -5.58000011E-03   9.60752827E-37
  -5.56500023E-03  -2.76682682E-37
  -5.54999989E-03  -1.72497195E-36
  -5.53500000E-03  -3.36090724E-36
  -5.52000012E-03  -5.14105905E-36
  -5.50499978E-03  -6.97504727E-36
  -5.48999989E-03  -8.77728732E-36
  -5.47500001E-03  -1.05647813E-35
  -5.46000013E-03  -1.22363179E-35
  -5.44499978E-03  -1.35282295E-35
  -5.42999990E-03  -1.43079258E-35
  -5.41500002E-03  -1.43231217E-35
  -5.40000014E-03  -1.24859311E-35
  -5.38499979E-03  -9.62622971E-36
  -5.36999991E-03  -6.55575294E-36
  -5.35500003E-03  -2.39906028E-36
  -5.34000015E-03   2.97180885E-36
  -5.32499980E-03   9.56474728E-36
  -5.30999992E-03   1.72449183E-35
  -5.29500004E-03   2.56950380E-35
  -5.28000016E-03   3.46355680E-35
  -5.26499981E-03   4.41960650E-35
  -5.24999993E-03   5.45451936E-35
  -5.23500005E-03   6.53014089E-35
  -5.22000017E-03   7.64520461E-35
  -5.20499982E-03   8.54494566E-35
  -5.18999994E-03   9.12364819E-35
  -5.17500006E-03   9.46982898E-35
  -5.16000018E-03   9.47644171E-35
  -5.14499983E-03   9.10829444E-35
  -5.12999995E-03   8.33177309E-35
  -5.11500007E-03   7.05421909E-35
  -5.10000018E-03   5.14521913E-35
  -5.08499984E-03   2.62653307E-35
  -5.06999996E-03  -4.61886054E-36
  -5.05500007E-03  -4.14030060E-35
  -5.04000019E-03  -8.30614869E-35
  -5.02499985E-03  -1.27804464E-34
  -5.00999996E-03  -1.73192838E-34
  -4.99500008E-03  -2.17914199E-34
  -4.98000020E-03  -2.61107509E-34
  -4.96499985E-03  -2.98441279E-34
  -4.94999997E-03  -3.25692934E-34
  -4.93500009E-03  -3.40704617E-34
  -4.92000021E-03  -3.41575447E-34
  -4.90499986E-03  -3.25994522E-34
  -4.88999998E-03  -2.91681291E-34
  -4.87500010E-03  -2.37639063E-34
  -4.86000022E-03  -1.63897731E-34
  -4.84499987E-03  -7.10937089E-35
  -4.82999999E-03   3.91171172E-35
  -4.81500011E-03   1.63882383E-34
  -4.80000023E-03   2.99016444E-34
  -4.78499988E-03   4.38604768E-34
  -4.77000000E-03   5.75985298E-34
  -4.75500012E-03   7.04059770E-34
  -4.73999977E-03   8.14343364E-34
  -4.72499989E-03   8.97693444E-34
  -4.71000001E-03   9.46082026E-34
  -4.69500013E-03   9.51332537E-34
  -4.67999978E-03   9.05502492E-34
  -4.66499990E-03   8.04577853E-34
  -4.65000002E-03   6.47840788E-34
  -4.63500014E-03   4.35961513E-34
  -4.61999979E-03   1.72070470E-34
  -4.60499991E-03  -1.38011233E-34
  -4.59000003E-03  -4.87793881E-34
  -4.57500014E-03  -8.68137200E-34
  -4.55999980E-03  -1.26360436E-33
  -4.54499992E-03  -1.64593858E-33
  -4.53000003E-03  -1.98115724E-33
  -4.51500015E-03  -2.23542126E-33
  -4.49999981E-03  -2.37680274E-33
  -4.48499992E-03  -2.37773671E-33
  -4.47000004E-03  -2.21517961E-33
  -4.45500016E-03  -1.87558628E-33
  -4.43999982E-03  -1.35914817E-33
  -4.42499993E-03  -6.78515038E-34
  -4.41000005E-03   1.56301409E-34
  -4.39500017E-03   1.13656078E-33
  -4.37999982E-03   2.23329049E-33
  -4.36499994E-03   3.39761250E-33
  -4.35000006E-03   4.57564849E-33
  -4.33500018E-03   5.70410764E-33
  -4.31999983E-03   6.72295121E-33
  -4.30499995E-03   7.56805304E-33
  -4.29000007E-03   8.16290093E-33
  -4.27500019E-03   8.42574955E-33
  -4.25999984E-03   8.28030049E-33
  -4.24499996E-03   7.67098446E-33
  -4.23000008E-03   6.56114368E-33
  -4.21500020E-03   4.94076182E-33
  -4.19999985E-03   2.82974496E-33
  -4.18499997E-03   2.61578901E-34
  -4.17000009E-03  -2.70956462E-33
  -4.15500021E-03  -5.98859968E-33
  -4.13999986E-03  -9.45999209E-33
  -4.12499998E-03  -1.29823815E-32
  -4.11000010E-03  -1.63841607E-32
  -4.09500021E-03  -1.94812857E-32
  -4.07999987E-03  -2.20793442E-32
  -4.06499999E-03  -2.39821889E-32
  -4.05000011E-03  -2.50043900E-32
  -4.03500022E-03  -2.49717671E-32
  -4.01999988E-03  -2.37289081E-32
  -4.00500000E-03  -2.11694866E-32
  -3.99000011E-03  -1.72473351E-32
  -3.97500023E-03  -1.19764897E-32
  -3.95999989E-03  -5.43551380E-33
  -3.94500000E-03   2.22852717E-33
  -3.93000012E-03   1.07915928E-32
  -3.91499978E-03   1.99569818E-32
  -3.89999989E-03   2.93662763E-32
  -3.88500001E-03   3.86017122E-32
  -3.86999990E-03   4.71992426E-32
  -3.85500002E-03   5.46697855E-32
  -3.83999990E-03   6.05202326E-32
  -3.82500002E-03   6.42746852E-32
  -3.80999991E-03   6.54903403E-32
  -3.79500003E-03   6.37631041E-32
  -3.77999991E-03   5.87878948E-32
  -3.76500003E-03   5.03993027E-32
  -3.74999992E-03   3.85708467E-32
  -3.73500003E-03   2.34402449E-32
  -3.71999992E-03   5.31708348E-33
  -3.70500004E-03  -1.53090257E-32
  -3.68999992E-03  -3.77701440E-32
  -3.67500004E-03  -6.12297434E-32
  -3.65999993E-03  -8.46933806E-32
  -3.64500005E-03  -1.07049908E-31
  -3.62999993E-03  -1.27122085E-31
  -3.61500005E-03  -1.43702409E-31
  -3.59999994E-03  -1.55591947E-31
  -3.58500006E-03  -1.61660507E-31
  -3.56999994E-03  -1.60921086E-31
  -3.55500006E-03  -1.52596717E-31
  -3.53999995E-03  -1.36176460E-31
  -3.52500007E-03  -1.11467627E-31
  -3.50999995E-03  -7.86447451E-32
  -3.49500007E-03  -3.82828212E-32
  -3.47999996E-03   8.62345962E-33
  -3.46500007E-03   6.06593112E-32
  -3.44999996E-03   1.16008973E-31
  -3.43500008E-03   1.72493111E-31
  -3.41999996E-03   2.27628768E-31
  -3.40500008E-03   2.78712955E-31
  -3.38999997E-03   3.22932020E-31
  -3.37500009E-03   3.57473733E-31
  -3.35999997E-03   3.79652796E-31
  -3.34500009E-03   3.87060597E-31
  -3.32999998E-03   3.77706577E-31
  -3.31500010E-03   3.50151156E-31
  -3.29999998E-03   3.03631460E-31
  -3.28500010E-03   2.38175774E-31
  -3.26999999E-03   1.54690978E-31
  -3.25500011E-03   5.50135706E-32
  -3.23999999E-03  -5.80762153E-32
  -3.22500011E-03  -1.80879052E-31
  -3.21000000E-03  -3.08850091E-31
  -3.19500011E-03  -4.36724880E-31
  -3.18000000E-03  -5.58679880E-31
  -3.16499989E-03  -6.68539419E-31
  -3.15000000E-03  -7.60030872E-31
  -3.13499989E-03  -8.27062215E-31
  -3.12000001E-03  -8.64018911E-31
  -3.10499989E-03  -8.66070854E-31
  -3.09000001E-03  -8.29478373E-31
  -3.07499990E-03  -7.51882815E-31
  -3.06000002E-03  -6.32559700E-31
  -3.04499990E-03  -4.72616202E-31
  -3.03000002E-03  -2.75128685E-31
  -3.01499991E-03  -4.52018456E-32
  -3.00000003E-03   2.10060417E-31
  -2.98499991E-03   4.81675831E-31
  -2.97000003E-03   7.59004618E-31
  -2.95499992E-03   1.03007808E-30
  -2.94000003E-03   1.28202498E-30
  -2.92499992E-03   1.50157169E-30
  -2.91000004E-03   1.67559385E-30
  -2.89499993E-03   1.79173325E-30
  -2.88000004E-03   1.83905621E-30
  -2.86499993E-03   1.80869629E-30
  -2.85000005E-03   1.69446420E-30
  -2.83499993E-03   1.49339617E-30
  -2.82000005E-03   1.20620447E-30
  -2.80499994E-03   8.37605647E-31
  -2.79000006E-03   3.96493163E-31
  -2.77499994E-03  -1.04073638E-31
  -2.76000006E-03  -6.47070896E-31
  -2.74499995E-03  -1.21190834E-30
  -2.73000007E-03  -1.77502374E-30
  -2.71499995E-03  -2.31068580E-30
  -2.70000007E-03  -2.79199469E-30
  -2.68499996E-03  -3.19202124E-30
  -2.67000007E-03  -3.48503456E-30
  -2.65499996E-03  -3.64779144E-30
  -2.64000008E-03  -3.66085428E-30
  -2.62499996E-03  -3.50986213E-30
  -2.61000008E-03  -3.18666099E-30
  -2.59499997E-03  -2.69025932E-30
  -2.58000009E-03  -2.02755510E-30
  -2.56499997E-03  -1.21374785E-30
  -2.55000009E-03  -2.72401773E-31
  -2.53499998E-03   7.64866620E-31
  -2.52000010E-03   1.85910149E-30
  -2.50499998E-03   2.96514199E-30
  -2.49000010E-03   4.03315986E-30
  -2.47499999E-03   5.01055501E-30
  -2.46000011E-03   5.84415806E-30
  -2.44499999E-03   6.48265461E-30
  -2.43000011E-03   6.87915469E-30
  -2.41500000E-03   6.99379116E-30
  -2.40000011E-03   6.79623287E-30
  -2.38500000E-03   6.26798038E-30
  -2.36999989E-03   5.40432531E-30
  -2.35500000E-03   4.21582830E-30
  -2.33999989E-03   2.72922122E-30
  -2.32500001E-03   9.87619979E-31
  -2.30999989E-03  -9.50011871E-31
  -2.29500001E-03  -3.01018731E-30
  -2.27999990E-03  -5.10704410E-30
  -2.26500002E-03  -7.14528210E-30
  -2.24999990E-03  -9.02380633E-30
  -2.23500002E-03  -1.06399948E-29
  -2.21999991E-03  -1.18944215E-29
  -2.20500003E-03  -1.26958686E-29
  -2.18999991E-03  -1.29664091E-29
  -2.17500003E-03  -1.26463271E-29
  -2.15999992E-03  -1.16986191E-29