  -1.49999997E-02   0.00000000    
  -1.49849998E-02   0.00000000    
  -1.49699999E-02   0.00000000    
  -1.49550000E-02   0.00000000    
  -1.49400001E-02   0.00000000    
  -1.49250003E-02   0.00000000    
  -1.49100004E-02   0.00000000    
  -1.48949996E-02  -0.00000000    
  -1.48799997E-02  -7.14895281E-38
  -1.48649998E-02  -5.63829006E-37
  -1.48499999E-02  -3.14457617E-36
  -1.48350000E-02  -1.40029358E-35
  -1.48200002E-02  -5.23873005E-35
  -1.48050003E-02  -1.71513385E-34
  -1.47900004E-02  -5.04479610E-34
  -1.47749996E-02  -1.35795945E-33
  -1.47599997E-02  -3.39138936E-33
  -1.47449998E-02  -7.94120637E-33
  -1.47299999E-02  -1.75799059E-32
  -1.47150001E-02  -3.70397770E-32
  -1.47000002E-02  -7.46819832E-32
  -1.46850003E-02  -1.44753783E-31
  -1.46700004E-02  -2.70748652E-31
  -1.46549996E-02  -4.90264604E-31
  -1.46399997E-02  -8.61838510E-31
  -1.46249998E-02  -1.47431733E-30
  -1.46100000E-02  -2.45939129E-30
  -1.45950001E-02  -4.00796629E-30
  -1.45800002E-02  -6.39104956E-30
  -1.45650003E-02  -9.98578125E-30
  -1.45500004E-02  -1.53071197E-29
  -1.45349996E-02  -2.30454580E-29
  -1.45199997E-02  -3.41101272E-29
  -1.45049999E-02  -4.96782375E-29
  -1.44900000E-02  -7.12477079E-29
  -1.44750001E-02  -1.00692462E-28
  -1.44600002E-02  -1.40316852E-28
  -1.44450003E-02  -1.92905115E-28
  -1.44300004E-02  -2.61760168E-28
  -1.44149996E-02  -3.50724987E-28
  -1.43999998E-02  -4.64177331E-28
  -1.43849999E-02  -6.06987492E-28
  -1.43700000E-02  -7.84427029E-28
  -1.43550001E-02  -1.00201301E-27
  -1.43400002E-02  -1.26527386E-27
  -1.43250003E-02  -1.57941817E-27
  -1.43100005E-02  -1.94888780E-27
  -1.42949997E-02  -2.37677917E-27
  -1.42799998E-02  -2.86410897E-27
  -1.42649999E-02  -3.40891218E-27
  -1.42500000E-02  -4.00515120E-27
  -1.42350001E-02  -4.64142607E-27
  -1.42200002E-02  -5.29947435E-27
  -1.42050004E-02  -5.95245704E-27
  -1.41899996E-02  -6.56303461E-27
  -1.41749997E-02  -7.08123996E-27
  -1.41599998E-02  -7.44217618E-27
  -1.41449999E-02  -7.56355984E-27
  -1.41300000E-02  -7.34315950E-27
  -1.41150001E-02  -6.65619570E-27
  -1.41000003E-02  -5.35275289E-27
  -1.40850004E-02  -3.25530424E-27
  -1.40699996E-02  -1.56449765E-28
  -1.40549997E-02   4.18298579E-27
  -1.40399998E-02   1.00354293E-26
  -1.40249999E-02   1.77073836E-26
  -1.40100000E-02   2.75394855E-26
  -1.39950002E-02   3.99055889E-26
  -1.39800003E-02   5.52107292E-26
  -1.39650004E-02   7.38877076E-26
  -1.39499996E-02   9.63922082E-26
  -1.39349997E-02   1.23196099E-25
  -1.39199998E-02   1.54778861E-25
  -1.39049999E-02   1.91617013E-25
  -1.38900001E-02   2.34171116E-25
  -1.38750002E-02   2.82870532E-25
  -1.38600003E-02   3.38095603E-25
  -1.38450004E-02   4.00157361E-25
  -1.38299996E-02   4.69274617E-25
  -1.38149997E-02   5.45548592E-25
  -1.37999998E-02   6.28934937E-25
  -1.37850000E-02   7.19213707E-25
  -1.37700001E-02   8.15957291E-25
  -1.37550002E-02   9.18496489E-25
  -1.37400003E-02   1.02588560E-24
  -1.37250004E-02   1.13686660E-24
  -1.37099996E-02   1.24983345E-24
  -1.36949997E-02   1.36279695E-24
  -1.36799999E-02   1.47335108E-24
  -1.36650000E-02   1.57864172E-24
  -1.36500001E-02   1.67533960E-24
  -1.36350002E-02   1.75961696E-24
  -1.36200003E-02   1.82713182E-24
  -1.36050005E-02   1.87301769E-24
  -1.35899996E-02   1.89188310E-24
  -1.35749998E-02   1.87782323E-24
  -1.35599999E-02   1.82444003E-24
  -1.35450000E-02   1.72487908E-24
  -1.35300001E-02   1.57187931E-24
  -1.35150002E-02   1.35783995E-24
  -1.35000004E-02   1.07490631E-24
  -1.34849995E-02   7.15073666E-25
  -1.34699997E-02   2.70311349E-25
  -1.34549998E-02  -2.67291614E-25
  -1.34399999E-02  -9.05361659E-25
  -1.34250000E-02  -1.65104811E-24
  -1.34100001E-02  -2.51081765E-24
  -1.33950002E-02  -3.49022081E-24
  -1.33800004E-02  -4.59364631E-24
  -1.33649996E-02  -5.82405041E-24
  -1.33499997E-02  -7.18267794E-24
  -1.33349998E-02  -8.66876567E-24
  -1.33199999E-02  -1.02792489E-23
  -1.33050000E-02  -1.20084541E-23
  -1.32900001E-02  -1.38477953E-23
  -1.32750003E-02  -1.57854933E-23
  -1.32600004E-02  -1.78062961E-23
  -1.32449996E-02  -1.98912208E-23
  -1.32299997E-02  -2.20173508E-23
  -1.32149998E-02  -2.41576456E-23
  -1.31999999E-02  -2.62808222E-23
  -1.31850000E-02  -2.83512854E-23
  -1.31700002E-02  -3.03291270E-23
  -1.31550003E-02  -3.21702084E-23
  -1.31400004E-02  -3.38263430E-23
  -1.31249996E-02  -3.52455322E-23
  -1.31099997E-02  -3.63723505E-23
  -1.30949998E-02  -3.71484287E-23
  -1.30799999E-02  -3.75130371E-23
  -1.30650001E-02  -3.74037893E-23
  -1.30500002E-02  -3.67574914E-23
  -1.30350003E-02  -3.55110691E-23
  -1.30200004E-02  -3.36026252E-23
  -1.30049996E-02  -3.09726103E-23
  -1.29899997E-02  -2.75651067E-23
  -1.29749998E-02  -2.33291334E-23
  -1.29600000E-02  -1.82201010E-23
  -1.29450001E-02  -1.22012643E-23
  -1.29300002E-02  -5.24520479E-24
  -1.29150003E-02   2.66464513E-24
  -1.29000004E-02   1.15325792E-23
  -1.28849996E-02   2.13491494E-23
  -1.28699997E-02   3.20898803E-23
  -1.28549999E-02   4.37140423E-23
  -1.28400000E-02   5.61636337E-23
  -1.28250001E-02   6.93624820E-23
  -1.28100002E-02   8.32156558E-23
  -1.27950003E-02   9.76090856E-23
  -1.27800005E-02   1.12409460E-22
  -1.27649996E-02   1.27464511E-22
  -1.27499998E-02   1.42603547E-22
  -1.27349999E-02   1.57638415E-22
  -1.27200000E-02   1.72364833E-22
  -1.27050001E-02   1.86564052E-22
  -1.26900002E-02   2.00004941E-22
  -1.26750004E-02   2.12446452E-22
  -1.26599995E-02   2.23640426E-22
  -1.26449997E-02   2.33334655E-22
  -1.26299998E-02   2.41276402E-22
  -1.26149999E-02   2.47216033E-22
  -1.26000000E-02   2.50910880E-22
  -1.25850001E-02   2.52129336E-22
  -1.25700003E-02   2.50654911E-22
  -1.25550004E-02   2.46290402E-22
  -1.25399996E-02   2.38861857E-22
  -1.25249997E-02   2.28222584E-22
  -1.25099998E-02   2.14256742E-22
  -1.24949999E-02   1.96882781E-22
  -1.24800000E-02   1.76056412E-22
  -1.24650002E-02   1.51773165E-22
  -1.24500003E-02   1.24070301E-22
  -1.24350004E-02   9.30283281E-23
  -1.24199996E-02   5.87717846E-23
  -1.24049997E-02   2.14692913E-23
  -1.23899998E-02  -1.86669813E-23
  -1.23749999E-02  -6.13826113E-23
  -1.23600001E-02  -1.06382929E-22
  -1.23450002E-02  -1.53335602E-22
  -1.23300003E-02  -2.01874012E-22
  -1.23150004E-02  -2.51600988E-22
  -1.22999996E-02  -3.02093287E-22
  -1.22849997E-02  -3.52906228E-22
  -1.22699998E-02  -4.03578740E-22
  -1.22550000E-02  -4.53638742E-22
  -1.22400001E-02  -5.02608097E-22
  -1.22250002E-02  -5.50008313E-22
  -1.22100003E-02  -5.95364912E-22
  -1.21950004E-02  -6.38212757E-22
  -1.21799996E-02  -6.78099684E-22
  -1.21649997E-02  -7.14590295E-22
  -1.21499998E-02  -7.47269079E-22
  -1.21350000E-02  -7.75742186E-22
  -1.21200001E-02  -7.99638941E-22
  -1.21050002E-02  -8.18612296E-22
  -1.20900003E-02  -8.32338324E-22
  -1.20750004E-02  -8.40514911E-22
  -1.20599996E-02  -8.42859684E-22
  -1.20449997E-02  -8.39107281E-22
  -1.20299999E-02  -8.29005923E-22
  -1.20150000E-02  -8.12313677E-22
  -1.20000001E-02  -7.88794767E-22
  -1.19850002E-02  -7.58215085E-22
  -1.19700003E-02  -7.20339059E-22
  -1.19550005E-02  -6.74926267E-22
  -1.19399996E-02  -6.21728972E-22
  -1.19249998E-02  -5.60491151E-22
  -1.19099999E-02  -4.90948506E-22
  -1.18950000E-02  -4.12830400E-22
  -1.18800001E-02  -3.25863243E-22
  -1.18650002E-02  -2.29776678E-22
  -1.18500004E-02  -1.24311352E-22
  -1.18349995E-02  -9.22945171E-24
  -1.18199997E-02   1.15672240E-22
  -1.18049998E-02   2.50547121E-22
  -1.17899999E-02   3.95481241E-22
  -1.17750000E-02   5.50473097E-22
  -1.17600001E-02   7.15412124E-22
  -1.17450003E-02   8.90055225E-22
  -1.17300004E-02   1.07400264E-21
  -1.17149996E-02   1.26667282E-21
  -1.16999997E-02   1.46727765E-21
  -1.16849998E-02   1.67479790E-21
  -1.16699999E-02   1.88796099E-21
  -1.16550000E-02   2.10522070E-21
  -1.16400002E-02   2.32473961E-21
  -1.16250003E-02   2.54437626E-21
  -1.16100004E-02   2.76167677E-21
  -1.15949996E-02   2.97387263E-21
  -1.15799997E-02   3.17788453E-21
  -1.15649998E-02   3.37033327E-21
  -1.15499999E-02   3.54755995E-21
  -1.15350001E-02   3.70565363E-21
  -1.15200002E-02   3.84048528E-21
  -1.15050003E-02   3.94775704E-21
  -1.14900004E-02   4.02305430E-21
  -1.14749996E-02   4.06190917E-21
  -1.14599997E-02   4.05987192E-21
  -1.14449998E-02   4.01259257E-21
  -1.14300000E-02   3.91590331E-21
  -1.14150001E-02   3.76591503E-21
  -1.14000002E-02   3.55911099E-21
  -1.13850003E-02   3.29244844E-21
  -1.13700004E-02   2.96345694E-21
  -1.13549996E-02   2.57034157E-21
  -1.13399997E-02   2.11207826E-21
  -1.13249999E-02   1.58850585E-21
  -1.13100000E-02   1.00041275E-21
  -1.12950001E-02   3.49610885E-22
  -1.12800002E-02  -3.61000698E-22
  -1.12650003E-02  -1.12738669E-21
  -1.12500004E-02  -1.94434235E-21
  -1.12349996E-02  -2.80547796E-21
  -1.12199998E-02  -3.70322581E-21
  -1.12049999E-02  -4.62886515E-21
  -1.11900000E-02  -5.57257362E-21
  -1.11750001E-02  -6.52349730E-21
  -1.11600002E-02  -7.46984887E-21
  -1.11450003E-02  -8.39902715E-21
  -1.11300005E-02  -9.29775889E-21
  -1.11149997E-02  -1.01522607E-20
  -1.10999998E-02  -1.09484317E-20
  -1.10849999E-02  -1.16720475E-20
  -1.10700000E-02  -1.23089847E-20
  -1.10550001E-02  -1.28454469E-20
  -1.10400002E-02  -1.32682089E-20
  -1.10250004E-02  -1.35648573E-20
  -1.10099996E-02  -1.37240379E-20
  -1.09949997E-02  -1.37356960E-20
  -1.09799998E-02  -1.35913109E-20
  -1.09649999E-02  -1.32841192E-20
  -1.09500000E-02  -1.28093118E-20
  -1.09350001E-02  -1.21642127E-20
  -1.09200003E-02  -1.13484366E-20
  -1.09050004E-02  -1.03640028E-20
  -1.08899996E-02  -9.21543018E-21
  -1.08749997E-02  -7.90977728E-21
  -1.08599998E-02  -6.45664915E-21
  -1.08449999E-02  -4.86816106E-21
  -1.08300000E-02  -3.15885655E-21
  -1.08150002E-02  -1.34557941E-21
  -1.08000003E-02   5.52699023E-22
  -1.07850004E-02   2.51509576E-21
  -1.07699996E-02   4.51907308E-21
  -1.07549997E-02   6.54073480E-21
  -1.07399998E-02   8.55515830E-21
  -1.07249999E-02   1.05367551E-20
  -1.07100001E-02   1.24596544E-20
  -1.06950002E-02   1.42981093E-20
  -1.06800003E-02   1.60269071E-20
  -1.06650004E-02   1.76217986E-20
  -1.06499996E-02   1.90599005E-20
  -1.06349997E-02   2.03201086E-20
  -1.06199998E-02   2.13834832E-20
  -1.06050000E-02   2.22336003E-20
  -1.05900001E-02   2.28568809E-20
  -1.05750002E-02   2.32428737E-20
  -1.05600003E-02   2.33844799E-20
  -1.05450004E-02   2.32781436E-20
  -1.05299996E-02   2.29239584E-20
  -1.05149997E-02   2.23257324E-20
  -1.04999999E-02   2.14909730E-20
  -1.04850000E-02   2.04308167E-20
  -1.04700001E-02   1.91598698E-20
  -1.04550002E-02   1.76960089E-20
  -1.04400003E-02   1.60600929E-20
  -1.04250005E-02   1.42756252E-20
  -1.04099996E-02   1.23683640E-20
  -1.03949998E-02   1.03658655E-20
  -1.03799999E-02   8.29700363E-21
  -1.03650000E-02   6.19144810E-21
  -1.03500001E-02   4.07910750E-21
  -1.03350002E-02   1.98957980E-21
  -1.03200004E-02  -4.84204559E-23
  -1.03049995E-02  -2.00761945E-21
  -1.02899997E-02  -3.86272222E-21
  -1.02749998E-02  -5.59092224E-21
  -1.02599999E-02  -7.17237242E-21
  -1.02450000E-02  -8.59060186E-21
  -1.02300001E-02  -9.83287042E-21
  -1.02150002E-02  -1.08904588E-20
  -1.02000004E-02  -1.17588789E-20
  -1.01849996E-02  -1.24379966E-20
  -1.01699997E-02  -1.29320714E-20
  -1.01549998E-02  -1.32497055E-20
  -1.01399999E-02  -1.34036912E-20
  -1.01250000E-02  -1.34107707E-20
  -1.01100001E-02  -1.32913126E-20
  -1.00950003E-02  -1.30688818E-20
  -1.00800004E-02  -1.27697477E-20
  -1.00649996E-02  -1.24223060E-20
  -1.00499997E-02  -1.20564377E-20
  -1.00349998E-02  -1.17028164E-20
  -1.00199999E-02  -1.13921689E-20
  -1.00050000E-02  -1.11545063E-20
  -9.99000017E-03  -1.10183374E-20
  -9.97500028E-03  -1.10098862E-20
  -9.96000040E-03  -1.11523140E-20
  -9.94499959E-03  -1.14649769E-20
  -9.92999971E-03  -1.19627199E-20
  -9.91499983E-03  -1.26552398E-20
  -9.89999995E-03  -1.35465099E-20
  -9.88500006E-03  -1.46342968E-20
  -9.87000018E-03  -1.59097786E-20
  -9.85500030E-03  -1.73572672E-20
  -9.84000042E-03  -1.89540521E-20
  -9.82499961E-03  -2.06703792E-20
  -9.80999973E-03  -2.24695552E-20
  -9.79499985E-03  -2.43081967E-20
  -9.77999996E-03  -2.61366165E-20
  -9.76500008E-03  -2.78993610E-20
  -9.75000020E-03  -2.95358667E-20
  -9.73500032E-03  -3.09812905E-20
  -9.72000044E-03  -3.21674223E-20
  -9.70499963E-03  -3.30237610E-20
  -9.68999974E-03  -3.34786683E-20
  -9.67499986E-03  -3.34606675E-20
  -9.65999998E-03  -3.28997647E-20
  -9.64500010E-03  -3.17288938E-20
  -9.63000022E-03  -2.98853764E-20
  -9.61500034E-03  -2.73124472E-20
  -9.60000046E-03  -2.39607502E-20
  -9.58499964E-03  -1.97898729E-20
  -9.56999976E-03  -1.47697977E-20
  -9.55499988E-03  -8.88233731E-21
  -9.54000000E-03  -2.12246568E-21
  -9.52500012E-03   5.50044694E-21
  -9.51000024E-03   1.39615276E-20
  -9.49500035E-03   2.32194493E-20
  -9.47999954E-03   3.32156669E-20
  -9.46499966E-03   4.38738342E-20
  -9.44999978E-03   5.50994764E-20
  -9.43499990E-03   6.67798741E-20
  -9.42000002E-03   7.87842423E-20
  -9.40500014E-03   9.09641666E-20
  -9.39000025E-03   1.03154379E-19
  -9.37500037E-03   1.15173785E-19
  -9.35999956E-03   1.26826899E-19
  -9.34499968E-03   1.37905471E-19
  -9.32999980E-03   1.48190622E-19
  -9.31499992E-03   1.57455174E-19
  -9.30000003E-03   1.65466328E-19
  -9.28500015E-03   1.71988685E-19
  -9.27000027E-03   1.76787561E-19
  -9.25500039E-03   1.79632481E-19
  -9.23999958E-03   1.80301062E-19
  -9.22499970E-03   1.78582995E-19
  -9.20999981E-03   1.74284176E-19
  -9.19499993E-03   1.67231053E-19
  -9.18000005E-03   1.57274874E-19
  -9.16500017E-03   1.44296178E-19
  -9.15000029E-03   1.28208898E-19
  -9.13500041E-03   1.08964605E-19
  -9.11999959E-03   8.65564119E-20
  -9.10499971E-03   6.10225484E-20
  -9.08999983E-03   3.24496557E-20
  -9.07499995E-03   9.75535536E-22
  -9.06000007E-03  -3.32085971E-20
  -9.04500019E-03  -6.98565207E-20
  -9.03000031E-03  -1.08666097E-19
  -9.01500043E-03  -1.49279165E-19
  -8.99999961E-03  -1.91282337E-19
  -8.98499973E-03  -2.34208617E-19
  -8.96999985E-03  -2.77540008E-19
  -8.95499997E-03  -3.20711313E-19
  -8.94000009E-03  -3.63114711E-19
  -8.92500021E-03  -4.04105466E-19
  -8.91000032E-03  -4.43008881E-19
  -8.89500044E-03  -4.79127930E-19
  -8.87999963E-03  -5.11752295E-19
  -8.86499975E-03  -5.40167810E-19
  -8.84999987E-03  -5.63667236E-19
  -8.83499999E-03  -5.81561427E-19
  -8.82000010E-03  -5.93191121E-19
  -8.80500022E-03  -5.97939448E-19
  -8.79000034E-03  -5.95244442E-19
  -8.77500046E-03  -5.84611707E-19
  -8.75999965E-03  -5.65626930E-19
  -8.74499977E-03  -5.37968285E-19
  -8.72999988E-03  -5.01418121E-19
  -8.71500000E-03  -4.55873660E-19
  -8.70000012E-03  -4.01356951E-19
  -8.68500024E-03  -3.38023532E-19
  -8.67000036E-03  -2.66169221E-19
  -8.65499955E-03  -1.86235579E-19
  -8.63999967E-03  -9.88131219E-20
  -8.62499978E-03  -4.64248939E-21
  -8.60999990E-03   9.53868558E-20
  -8.59500002E-03   2.00240264E-19
  -8.58000014E-03   3.08744259E-19
  -8.56500026E-03   4.19595586E-19
  -8.55000038E-03   5.31372864E-19
  -8.53499956E-03   6.42551056E-19
  -8.51999968E-03   7.51518557E-19
  -8.50499980E-03   8.56596654E-19
  -8.48999992E-03   9.56062073E-19
  -8.47500004E-03   1.04816998E-18
  -8.46000016E-03   1.13118148E-18
  -8.44500028E-03   1.20338990E-18
  -8.43000039E-03   1.26315019E-18
  -8.41499958E-03   1.30890858E-18
  -8.39999970E-03   1.33923209E-18
  -8.38499982E-03   1.35283880E-18
  -8.36999994E-03   1.34862669E-18
  -8.35500006E-03   1.32570148E-18
  -8.34000017E-03   1.28340298E-18
  -8.32500029E-03   1.22132887E-18
  -8.31000041E-03   1.13935578E-18
  -8.29499960E-03   1.03765724E-18
  -8.27999972E-03   9.16716917E-19
  -8.26499984E-03   7.77339052E-19
  -8.24999996E-03   6.20652380E-19
  -8.23500007E-03   4.48110725E-19
  -8.22000019E-03   2.61486862E-19
  -8.20500031E-03   6.28617781E-20
  -8.19000043E-03  -1.45392205E-19
  -8.17499962E-03  -3.60633919E-19
  -8.15999974E-03  -5.79981357E-19
  -8.14499985E-03  -8.00345116E-19
  -8.12999997E-03  -1.01846706E-18
  -8.11500009E-03  -1.23096366E-18
  -8.10000021E-03  -1.43437347E-18
  -8.08500033E-03  -1.62520931E-18
  -8.07000045E-03  -1.80001160E-18
  -8.05499963E-03  -1.95540554E-18
  -8.03999975E-03  -2.08815914E-18
  -8.02499987E-03  -2.19524139E-18
  -8.00999999E-03  -2.27388104E-18
  -7.99500011E-03  -2.32162218E-18
  -7.98000023E-03  -2.33637908E-18
  -7.96500035E-03  -2.31648601E-18
  -7.95000046E-03  -2.26074438E-18
  -7.93499965E-03  -2.16846204E-18
  -7.91999977E-03  -2.03948721E-18
  -7.90499989E-03  -1.87423638E-18
  -7.89000001E-03  -1.67371177E-18
  -7.87500013E-03  -1.43951068E-18
  -7.86000025E-03  -1.17382750E-18
  -7.84500036E-03  -8.79442607E-19
  -7.82999955E-03  -5.59704162E-19
  -7.81499967E-03  -2.18497949E-19
  -7.79999979E-03   1.39791740E-19
  -7.78499991E-03   5.10331716E-19
  -7.77000003E-03   8.87898565E-19
  -7.75500014E-03   1.26694622E-18
  -7.73999980E-03   1.64168168E-18
  -7.72499992E-03   2.00614708E-18
  -7.71000003E-03   2.35430926E-18
  -7.69500015E-03   2.68015225E-18
  -7.67999981E-03   2.97777431E-18
  -7.66499992E-03   3.24148673E-18
  -7.65000004E-03   3.46591262E-18
  -7.63500016E-03   3.64608475E-18
  -7.61999981E-03   3.77753823E-18
  -7.60499993E-03   3.85640370E-18
  -7.59000005E-03   3.87948783E-18
  -7.57500017E-03   3.84435043E-18
  -7.55999982E-03   3.74936983E-18
  -7.54499994E-03   3.59379867E-18
  -7.53000006E-03   3.37780568E-18
  -7.51500018E-03   3.10250612E-18
  -7.49999983E-03   2.76997599E-18
  -7.48499995E-03   2.38325272E-18
  -7.47000007E-03   1.94631917E-18
  -7.45500019E-03   1.46407298E-18
  -7.43999984E-03   9.42278659E-19
  -7.42499996E-03   3.87505812E-19
  -7.41000008E-03  -1.92949300E-19
  -7.39500020E-03  -7.91155346E-19
  -7.37999985E-03  -1.39865116E-18
  -7.36499997E-03  -2.00656232E-18
  -7.35000009E-03  -2.60572853E-18
  -7.33500021E-03  -3.18683863E-18
  -7.31999986E-03  -3.74057401E-18
  -7.30499998E-03  -4.25775297E-18
  -7.29000010E-03  -4.72948167E-18
  -7.27500021E-03  -5.14730052E-18
  -7.25999987E-03  -5.50333105E-18
  -7.24499999E-03  -5.79041483E-18
  -7.23000010E-03  -6.00224669E-18
  -7.21500022E-03  -6.13349957E-18
  -7.19999988E-03  -6.17993212E-18
  -7.18499999E-03  -6.13848665E-18
  -7.17000011E-03  -6.00736859E-18
  -7.15500023E-03  -5.78610729E-18
  -7.13999989E-03  -5.47559982E-18
  -7.12500000E-03  -5.07813250E-18
  -7.11000012E-03  -4.59737844E-18
  -7.09499978E-03  -4.03837930E-18
  -7.07999989E-03  -3.40749629E-18
  -7.06500001E-03  -2.71234715E-18
  -7.05000013E-03  -1.96171714E-18
  -7.03499978E-03  -1.16544899E-18
  -7.01999990E-03  -3.34316134E-19
  -7.00500002E-03   5.20124086E-19
  -6.99000014E-03   1.38569255E-18
  -6.97499979E-03   2.24976273E-18
  -6.95999991E-03   3.09944865E-18
  -6.94500003E-03   3.92179811E-18
  -6.93000015E-03   4.70399416E-18
  -6.91499980E-03   5.43355630E-18
  -6.89999992E-03   6.09854375E-18
  -6.88500004E-03   6.68775029E-18
  -6.87000016E-03   7.19089613E-18
  -6.85499981E-03   7.59880784E-18
  -6.83999993E-03   7.90358089E-18
  -6.82500005E-03   8.09873099E-18
  -6.81000017E-03   8.17932402E-18
  -6.79499982E-03   8.14208187E-18
  -6.77999994E-03   7.98546598E-18
  -6.76500006E-03   7.70973938E-18
  -6.75000018E-03   7.31699485E-18
  -6.73499983E-03   6.81115736E-18
  -6.71999995E-03   6.19795886E-18
  -6.70500007E-03   5.48488492E-18
  -6.69000018E-03   4.68108912E-18
  -6.67499984E-03   3.79728386E-18
  -6.65999996E-03   2.84560202E-18
  -6.64500007E-03   1.83943586E-18
  -6.63000019E-03   7.93250853E-19
  -6.61499985E-03  -2.77619133E-19
  -6.59999996E-03  -1.35719349E-18
  -6.58500008E-03  -2.42908163E-18
  -6.57000020E-03  -3.47673028E-18
  -6.55499985E-03  -4.48367750E-18
  -6.53999997E-03  -5.43380817E-18
  -6.52500009E-03  -6.31161224E-18
  -6.51000021E-03  -7.10243413E-18
  -6.49499986E-03  -7.79271635E-18
  -6.47999998E-03  -8.37022656E-18
  -6.46500010E-03  -8.82427261E-18
  -6.45000022E-03  -9.14589284E-18
  -6.43499987E-03  -9.32802726E-18
  -6.41999999E-03  -9.36565488E-18
  -6.40500011E-03  -9.25591200E-18
  -6.39000023E-03  -8.99817079E-18
  -6.37499988E-03  -8.59408727E-18
  -6.36000000E-03  -8.04761619E-18
  -6.34500012E-03  -7.36498622E-18
  -6.32999977E-03  -6.55464824E-18
  -6.31499989E-03  -5.62717653E-18
  -6.30000001E-03  -4.59514629E-18
  -6.28500013E-03  -3.47297281E-18
  -6.26999978E-03  -2.27671930E-18
  -6.25499990E-03  -1.02387961E-18
  -6.24000002E-03   2.66867620E-19
  -6.22500014E-03   1.57592599E-18
  -6.20999979E-03   2.88306751E-18
  -6.19499991E-03   4.16773215E-18
  -6.18000003E-03   5.40933893E-18
  -6.16500014E-03   6.58760064E-18
  -6.14999980E-03   7.68284195E-18
  -6.13499992E-03   8.67630903E-18
  -6.12000003E-03   9.55047515E-18
  -6.10500015E-03   1.02893311E-17
  -6.08999981E-03   1.08786542E-17
  -6.07499992E-03   1.13062611E-17
  -6.06000004E-03   1.15622231E-17
  -6.04500016E-03   1.16390665E-17
  -6.02999981E-03   1.15319226E-17
  -6.01499993E-03   1.12386474E-17
  -6.00000005E-03   1.07599075E-17
  -5.98500017E-03   1.00992168E-17
  -5.96999982E-03   9.26293145E-18
  -5.95499994E-03   8.26020657E-18
  -5.94000006E-03   7.10290562E-18
  -5.92500018E-03   5.80546869E-18
  -5.90999983E-03   4.38473719E-18
  -5.89499995E-03   2.85974350E-18
  -5.88000007E-03   1.25145995E-18
  -5.86500019E-03  -4.17482062E-19
  -5.84999984E-03  -2.12310690E-18
  -5.83499996E-03  -3.84043084E-18
  -5.82000008E-03  -5.54382361E-18
  -5.80500020E-03  -7.20738101E-18
  -5.78999985E-03  -8.80531281E-18
  -5.77499997E-03  -1.03123325E-17
  -5.76000009E-03  -1.17040440E-17
  -5.74500021E-03  -1.29573260E-17
  -5.72999986E-03  -1.40507033E-17
  -5.71499998E-03  -1.49646965E-17
  -5.70000010E-03  -1.56821450E-17
  -5.68500021E-03  -1.61885086E-17
  -5.66999987E-03  -1.64721306E-17
  -5.65499999E-03  -1.65244630E-17
  -5.64000010E-03  -1.63402350E-17
  -5.62500022E-03  -1.59176053E-17
  -5.60999988E-03  -1.52582331E-17
  -5.59500000E-03  -1.43673149E-17
  -5.58000011E-03  -1.32535684E-17
  -5.56500023E-03  -1.19291571E-17
  -5.54999989E-03  -1.04095601E-17
  -5.53500000E-03  -8.71339980E-18
  -5.52000012E-03  -6.86220764E-18
  -5.50499978E-03  -4.88015220E-18
  -5.48999989E-03  -2.79371236E-18
  -5.47500001E-03  -6.31321356E-19
  -5.46000013E-03   1.57703328E-18
  -5.44499978E-03   3.80023482E-18
  -5.42999990E-03   6.00648930E-18
  -5.41500002E-03   8.16379205E-18
  -5.40000014E-03   1.02404075E-17
  -5.38499979E-03   1.22053527E-17
  -5.36999991E-03   1.40288740E-17
  -5.35500003E-03   1.56829143E-17
  -5.34000015E-03   1.71415613E-17
  -5.32499980E-03   1.83814703E-17
  -5.30999992E-03   1.93822579E-17
  -5.29500004E-03   2.01268445E-17
  -5.28000016E-03   2.06017719E-17
  -5.26499981E-03   2.07974431E-17
  -5.24999993E-03   2.07083376E-17
  -5.23500005E-03   2.03331417E-17
  -5.22000017E-03   1.96748184E-17
  -5.20499982E-03   1.87406370E-17
  -5.18999994E-03   1.75421069E-17
  -5.17500006E-03   1.60948585E-17
  -5.16000018E-03   1.44184595E-17
  -5.14499983E-03   1.25361679E-17
  -5.12999995E-03   1.04746121E-17
  -5.11500007E-03   8.26343340E-18
  -5.10000018E-03   5.93485918E-18
  -5.08499984E-03   3.52324140E-18
  -5.06999996E-03   1.06454826E-18
  -5.05500007E-03  -1.40417528E-18
  -5.04000019E-03  -3.84536952E-18
  -5.02499985E-03  -6.22153930E-18
  -5.00999996E-03  -8.49584220E-18
  -4.99500008E-03  -1.06326731E-17
  -4.98000020E-03  -1.25982337E-17
  -4.96499985E-03  -1.43610962E-17
  -4.94999997E-03  -1.58927204E-17
  -4.93500009E-03  -1.71679384E-17
  -4.92000021E-03  -1.81654008E-17
  -4.90499986E-03  -1.88679583E-17
  -4.88999998E-03  -1.92629884E-17
  -4.87500010E-03  -1.93426508E-17
  -4.86000022E-03  -1.91040754E-17
  -4.84499987E-03  -1.85494723E-17
  -4.82999999E-03  -1.76861588E-17
  -4.81500011E-03  -1.65265111E-17
  -4.80000023E-03  -1.50878389E-17
  -4.78499988E-03  -1.33921583E-17
  -4.77000000E-03  -1.14659136E-17
  -4.75500012E-03  -9.33961192E-18
  -4.73999977E-03  -7.04738195E-18
  -4.72499989E-03  -4.62647907E-18
  -4.71000001E-03  -2.11673099E-18
  -4.69500013E-03   4.40069754E-19
  -4.67999978E-03   3.00081171E-18
  -4.66499990E-03   5.52173789E-18
  -4.65000002E-03   7.95914426E-18
  -4.63500014E-03   1.02700793E-17
  -4.61999979E-03   1.24130536E-17
  -4.60499991E-03   1.43487232E-17
  -4.59000003E-03   1.60405607E-17
  -4.57500014E-03   1.74554829E-17
  -4.55999980E-03   1.85644327E-17
  -4.54499992E-03   1.93429122E-17
  -4.53000003E-03   1.97714431E-17
  -4.51500015E-03   1.98359582E-17
  -4.49999981E-03   1.95281064E-17
  -4.48499992E-03   1.88454838E-17
  -4.47000004E-03   1.77917616E-17
  -4.45500016E-03   1.63767203E-17
  -4.43999982E-03   1.46161904E-17
  -4.42499993E-03   1.25318988E-17
  -4.41000005E-03   1.01512184E-17
  -4.39500017E-03   7.50681709E-18
  -4.37999982E-03   4.63622243E-18
  -4.36499994E-03   1.58130908E-18
  -4.35000006E-03  -1.61229620E-18
  -4.33500018E-03  -4.89587690E-18
  -4.31999983E-03  -8.21834710E-18
  -4.30499995E-03  -1.15270141E-17
  -4.29000007E-03  -1.47683884E-17
  -4.27500019E-03  -1.78890083E-17
  -4.25999984E-03  -2.08362743E-17
  -4.24499996E-03  -2.35592917E-17
  -4.23000008E-03  -2.60096885E-17
  -4.21500020E-03  -2.81424182E-17
  -4.19999985E-03  -2.99164956E-17
  -4.18499997E-03  -3.12957233E-17
  -4.17000009E-03  -3.22493005E-17
  -4.15500021E-03  -3.27524083E-17
  -4.13999986E-03  -3.27866734E-17
  -4.12499998E-03  -3.23405550E-17
  -4.11000010E-03  -3.14096360E-17
  -4.09500021E-03  -2.99967851E-17
  -4.07999987E-03  -2.81122460E-17
  -4.06499999E-03  -2.57735830E-17
  -4.05000011E-03  -2.30055207E-17
  -4.03500022E-03  -1.98396970E-17
  -4.01999988E-03  -1.63142648E-17
  -4.00500000E-03  -1.24734320E-17
  -3.99000011E-03  -8.36687647E-18
  -3.97500023E-03  -4.04907846E-18
  -3.95999989E-03   4.21420889E-19
  -3.94500000E-03   4.98284254E-18
  -3.93000012E-03   9.57104382E-18
  -3.91499978E-03   1.41204429E-17
  -3.89999989E-03   1.85649720E-17
  -3.88500001E-03   2.28390490E-17
  -3.86999990E-03   2.68785690E-17
  -3.85500002E-03   3.06218524E-17
  -3.83999990E-03   3.40105996E-17
  -3.82500002E-03   3.69907990E-17
  -3.80999991E-03   3.95135675E-17
  -3.79500003E-03   4.15359414E-17
  -3.77999991E-03   4.30215842E-17
  -3.76500003E-03   4.39413959E-17
  -3.74999992E-03   4.42740350E-17
  -3.73500003E-03   4.40063229E-17
  -3.71999992E-03   4.31335514E-17
  -3.70500004E-03   4.16596380E-17
  -3.68999992E-03   3.95971889E-17
  -3.67500004E-03   3.69674030E-17
  -3.65999993E-03   3.37999035E-17
  -3.64500005E-03   3.01323732E-17
  -3.62999993E-03   2.60101319E-17
  -3.61500005E-03   2.14855697E-17
  -3.59999994E-03   1.66174696E-17
  -3.58500006E-03   1.14702505E-17
  -3.56999994E-03   6.11310295E-18
  -3.55500006E-03   6.19060523E-19
  -3.53999995E-03  -4.93600178E-18
  -3.52500007E-03  -1.04744136E-17
  -3.50999995E-03  -1.59177939E-17
  -3.49500007E-03  -2.11881553E-17
  -3.47999996E-03  -2.62090093E-17
  -3.46500007E-03  -3.09064720E-17
  -3.44999996E-03  -3.52103159E-17
  -3.43500008E-03  -3.90550249E-17
  -3.41999996E-03  -4.23807476E-17
  -3.40500008E-03  -4.51341903E-17
  -3.38999997E-03  -4.72694545E-17
  -3.37500009E-03  -4.87487313E-17
  -3.35999997E-03  -4.95429174E-17
  -3.34500009E-03  -4.96321139E-17
  -3.32999998E-03  -4.90059779E-17
  -3.31500010E-03  -4.76639733E-17
  -3.29999998E-03  -4.56154506E-17
  -3.28500010E-03  -4.28796301E-17
  -3.26999999E-03  -3.94854136E-17
  -3.25500011E-03  -3.54710531E-17
  -3.23999999E-03  -3.08837345E-17
  -3.22500011E-03  -2.57789878E-17
  -3.21000000E-03  -2.02199784E-17
  -3.19500011E-03  -1.42767122E-17
  -3.18000000E-03  -8.02512598E-18
  -3.16499989E-03  -1.54608359E-18
  -3.15000000E-03   5.07569480E-18
  -3.13499989E-03   1.17527691E-17
  -3.12000001E-03   1.83961560E-17
  -3.10499989E-03   2.49165462E-17
  -3.09000001E-03   3.12255156E-17
  -3.07499990E-03   3.72367430E-17
  -3.06000002E-03   4.28672125E-17
  -3.04499990E-03   4.80383619E-17
  -3.03000002E-03   5.26771775E-17
  -3.01499991E-03   5.67172203E-17
  -3.00000003E-03   6.00995816E-17
  -2.98499991E-03   6.27737176E-17
  -2.97000003E-03   6.46981698E-17
  -2.95499992E-03   6.58411812E-17
  -2.94000003E-03   6.61811525E-17
  -2.92499992E-03   6.57070059E-17
  -2.91000004E-03   6.44183313E-17
  -2.89499993E-03   6.23254916E-17
  -2.88000004E-03   5.94494243E-17
  -2.86499993E-03   5.58214763E-17
  -2.85000005E-03   5.14829239E-17
  -2.83499993E-03   4.64844932E-17
  -2.82000005E-03   4.08856319E-17
  -2.80499994E-03   3.47537585E-17
  -2.79000006E-03   2.81633161E-17
  -2.77499994E-03   2.11947794E-17
  -2.76000006E-03   1.39335580E-17
  -2.74499995E-03   6.46882577E-18
  -2.73000007E-03  -1.10768511E-18
  -2.71499995E-03  -8.70294755E-18
  -2.70000007E-03  -1.62239003E-17
  -2.68499996E-03  -2.35787221E-17
  -2.67000007E-03  -3.06780841E-17
  -2.65499996E-03  -3.74363483E-17
  -2.64000008E-03  -4.37727370E-17
  -2.62499996E-03  -4.96124072E-17
  -2.61000008E-03  -5.48874537E-17
  -2.59499997E-03  -5.95378003E-17
  -2.58000009E-03  -6.35119730E-17
  -2.56499997E-03  -6.67677691E-17
  -2.55000009E-03  -6.92727433E-17
  -2.53499998E-03  -7.10046279E-17
  -2.52000010E-03  -7.19514784E-17
  -2.50499998E-03  -7.21118456E-17
  -2.49000010E-03  -7.14946299E-17
  -2.47499999E-03  -7.01188564E-17
  -2.46000011E-03  -6.80133377E-17
  -2.44499999E-03  -6.52161437E-17
  -2.43000011E-03  -6.17739408E-17
  -2.41500000E-03  -5.77412566E-17
  -2.40000011E-03  -5.31795872E-17
  -2.38500000E-03  -4.81564403E-17
  -2.36999989E-03  -4.27442769E-17
  -2.35500000E-03  -3.70194194E-17
  -2.33999989E-03  -3.10609066E-17
  -2.32500001E-03  -2.49492744E-17
  -2.30999989E-03  -1.87654061E-17
  -2.29500001E-03  -1.25893365E-17
  -2.27999990E-03  -6.49910389E-18
  -2.26500002E-03  -5.69643512E-19
  -2.24999990E-03   5.12825510E-18
  -2.23500002E-03   1.05289157E-17
  -2.21999991E-03   1.55726461E-17
  -2.20500003E-03   2.02065119E-17
  -2.18999991E-03   2.43849817E-17
  -2.17500003E-03   2.80704667E-17
  -2.15999992E-03   3.12337080E-17