  -1.49999997E-02   0.00000000    
  -1.49849998E-02   0.00000000    
  -1.49699999E-02   0.00000000    
  -1.49550000E-02   0.00000000    
  -1.49400001E-02   0.00000000    
  -1.49250003E-02   0.00000000    
  -1.49100004E-02   0.00000000    
  -1.48949996E-02   0.00000000    
  -1.48799997E-02   0.00000000    
  -1.48649998E-02   0.00000000    
  -1.48499999E-02   0.00000000    
  -1.48350000E-02   0.00000000    
  -1.48200002E-02   0.00000000    
  -1.48050003E-02   0.00000000    
  -1.47900004E-02   0.00000000    
  -1.47749996E-02   0.00000000    
  -1.47599997E-02   0.00000000    
  -1.47449998E-02   0.00000000    
  -1.47299999E-02   2.57050194E-34
  -1.47150001E-02  -2.32152934E-33
  -1.47000002E-02  -1.43613495E-32
  -1.46850003E-02  -4.16468979E-32
  -1.46700004E-02  -1.03536837E-31
  -1.46549996E-02  -2.37878938E-31
  -1.46399997E-02  -5.19240493E-31
  -1.46249998E-02  -1.08781780E-30
  -1.46100000E-02  -2.20339796E-30
  -1.45950001E-02  -4.26544093E-30
  -1.45800002E-02  -8.07411673E-30
  -1.45650003E-02  -1.48457165E-29
  -1.45500004E-02  -2.67635591E-29
  -1.45349996E-02  -4.71005487E-29
  -1.45199997E-02  -8.12556885E-29
  -1.45049999E-02  -1.37548147E-28
  -1.44900000E-02  -2.28651290E-28
  -1.44750001E-02  -3.73574148E-28
  -1.44600002E-02  -6.00253238E-28
  -1.44450003E-02  -9.49196788E-28
  -1.44300004E-02  -1.47826120E-27
  -1.44149996E-02  -2.26861779E-27
  -1.43999998E-02  -3.43246861E-27
  -1.43849999E-02  -5.12435108E-27
  -1.43700000E-02  -7.55113605E-27
  -1.43550001E-02  -1.09872439E-26
  -1.43400002E-02  -1.57930816E-26
  -1.43250003E-02  -2.24315480E-26
  -1.43100005E-02  -3.14945506E-26
  -1.42949997E-02  -4.37233090E-26
  -1.42799998E-02  -6.00314028E-26
  -1.42649999E-02  -8.15303893E-26
  -1.42500000E-02  -1.09542273E-25
  -1.42350001E-02  -1.45617992E-25
  -1.42200002E-02  -1.91531138E-25
  -1.42050004E-02  -2.49259166E-25
  -1.41899996E-02  -3.20940836E-25
  -1.41749997E-02  -4.08792997E-25
  -1.41599998E-02  -5.14987381E-25
  -1.41449999E-02  -6.41466929E-25
  -1.41300000E-02  -7.89686843E-25
  -1.41150001E-02  -9.60267462E-25
  -1.41000003E-02  -1.15253959E-24
  -1.40850004E-02  -1.36396683E-24
  -1.40699996E-02  -1.58941687E-24
  -1.40549997E-02  -1.82028155E-24
  -1.40399998E-02  -2.04341145E-24
  -1.40249999E-02  -2.23986838E-24
  -1.40100000E-02  -2.38347992E-24
  -1.39950002E-02  -2.43920821E-24
  -1.39800003E-02  -2.36134251E-24
  -1.39650004E-02  -2.09153808E-24
  -1.39499996E-02  -1.55675941E-24
  -1.39349997E-02  -6.67183449E-25
  -1.39199998E-02   6.85842574E-25
  -1.39049999E-02   2.63168001E-24
  -1.38900001E-02   5.32194242E-24
  -1.38750002E-02   8.93155496E-24
  -1.38600003E-02   1.36590777E-23
  -1.38450004E-02   1.97260649E-23
  -1.38299996E-02   2.73751679E-23
  -1.38149997E-02   3.68666445E-23
  -1.37999998E-02   4.84729215E-23
  -1.37850000E-02   6.24708922E-23
  -1.37700001E-02   7.91314073E-23
  -1.37550002E-02   9.87058421E-23
  -1.37400003E-02   1.21409051E-22
  -1.37250004E-02   1.47398736E-22
  -1.37099996E-02   1.76750445E-22
  -1.36949997E-02   2.09428548E-22
  -1.36799999E-02   2.45253069E-22
  -1.36650000E-02   2.83861689E-22
  -1.36500001E-02   3.24668441E-22
  -1.36350002E-02   3.66818352E-22
  -1.36200003E-02   4.09139869E-22
  -1.36050005E-02   4.50095356E-22
  -1.35899996E-02   4.87731013E-22
  -1.35749998E-02   5.19628055E-22
  -1.35599999E-02   5.42859037E-22
  -1.35450000E-02   5.53948276E-22
  -1.35300001E-02   5.48840799E-22
  -1.35150002E-02   5.22887401E-22
  -1.35000004E-02   4.70840757E-22
  -1.34849995E-02   3.86874377E-22
  -1.34699997E-02   2.64625271E-22
  -1.34549998E-02   9.72637981E-23
  -1.34399999E-02  -1.22401551E-22
  -1.34250000E-02  -4.01783343E-22
  -1.34100001E-02  -7.48333650E-22
  -1.33950002E-02  -1.16931734E-21
  -1.33800004E-02  -1.67153583E-21
  -1.33649996E-02  -2.26100470E-21
  -1.33499997E-02  -2.94257750E-21
  -1.33349998E-02  -3.71952385E-21
  -1.33199999E-02  -4.59305768E-21
  -1.33050000E-02  -5.56181663E-21
  -1.32900001E-02  -6.62132352E-21
  -1.32750003E-02  -7.76339863E-21
  -1.32600004E-02  -8.97557042E-21
  -1.32449996E-02  -1.02404847E-20
  -1.32299997E-02  -1.15353196E-20
  -1.32149998E-02  -1.28312588E-20
  -1.31999999E-02  -1.40929976E-20
  -1.31850000E-02  -1.52783716E-20
  -1.31700002E-02  -1.63380579E-20
  -1.31550003E-02  -1.72154558E-20
  -1.31400004E-02  -1.78467335E-20
  -1.31249996E-02  -1.81610848E-20
  -1.31099997E-02  -1.80812101E-20
  -1.30949998E-02  -1.75240911E-20
  -1.30799999E-02  -1.64020917E-20
  -1.30650001E-02  -1.46243141E-20
  -1.30500002E-02  -1.20983590E-20
  -1.30350003E-02  -8.73247303E-21
  -1.30200004E-02  -4.43796777E-21
  -1.30049996E-02   8.67894721E-22
  -1.29899997E-02   7.25868274E-21
  -1.29749998E-02   1.47953192E-20
  -1.29600000E-02   2.35221764E-20
  -1.29450001E-02   3.34630488E-20
  -1.29300002E-02   4.46169332E-20
  -1.29150003E-02   5.69535953E-20
  -1.29000004E-02   7.04092712E-20
  -1.28849996E-02   8.48824569E-20
  -1.28699997E-02   1.00229914E-19
  -1.28549999E-02   1.16263014E-19
  -1.28400000E-02   1.32744665E-19
  -1.28250001E-02   1.49387061E-19
  -1.28100002E-02   1.65849945E-19
  -1.27950003E-02   1.81740214E-19
  -1.27800005E-02   1.96612624E-19
  -1.27649996E-02   2.09971850E-19
  -1.27499998E-02   2.21275880E-19
  -1.27349999E-02   2.29941424E-19
  -1.27200000E-02   2.35350720E-19
  -1.27050001E-02   2.36860351E-19
  -1.26900002E-02   2.33811673E-19
  -1.26750004E-02   2.25543641E-19
  -1.26599995E-02   2.11406905E-19
  -1.26449997E-02   1.90780135E-19
  -1.26299998E-02   1.63087498E-19
  -1.26149999E-02   1.27817628E-19
  -1.26000000E-02   8.45442046E-20
  -1.25850001E-02   3.29468461E-20
  -1.25700003E-02  -2.71675258E-20
  -1.25550004E-02  -9.58434530E-20
  -1.25399996E-02  -1.72956241E-19
  -1.25249997E-02  -2.58191426E-19
  -1.25099998E-02  -3.51027147E-19
  -1.24949999E-02  -4.50718980E-19
  -1.24800000E-02  -5.56286665E-19
  -1.24650002E-02  -6.66504139E-19
  -1.24500003E-02  -7.79896384E-19
  -1.24350004E-02  -8.94737280E-19
  -1.24199996E-02  -1.00905654E-18
  -1.24049997E-02  -1.12064971E-18
  -1.23899998E-02  -1.22709680E-18
  -1.23749999E-02  -1.32578596E-18
  -1.23600001E-02  -1.41394345E-18
  -1.23450002E-02  -1.48867323E-18
  -1.23300003E-02  -1.54700083E-18
  -1.23150004E-02  -1.58592278E-18
  -1.22999996E-02  -1.60246784E-18
  -1.22849997E-02  -1.59375463E-18
  -1.22699998E-02  -1.55706100E-18
  -1.22550000E-02  -1.48989518E-18
  -1.22400001E-02  -1.39006689E-18
  -1.22250002E-02  -1.25576181E-18
  -1.22100003E-02  -1.08561407E-18
  -1.21950004E-02  -8.78777451E-19
  -1.21799996E-02  -6.34990987E-19
  -1.21649997E-02  -3.54639548E-19
  -1.21499998E-02  -3.88095178E-20
  -1.21350000E-02   3.10673373E-19
  -1.21200001E-02   6.91209077E-19
  -1.21050002E-02   1.09940410E-18
  -1.20900003E-02   1.53107182E-18
  -1.20750004E-02   1.98124191E-18
  -1.20599996E-02   2.44419050E-18
  -1.20449997E-02   2.91348666E-18
  -1.20299999E-02   3.38206276E-18
  -1.20150000E-02   3.84228745E-18
  -1.20000001E-02   4.28608391E-18
  -1.19850002E-02   4.70503310E-18
  -1.19700003E-02   5.09051250E-18
  -1.19550005E-02   5.43384912E-18
  -1.19399996E-02   5.72646633E-18
  -1.19249998E-02   5.96006503E-18
  -1.19099999E-02   6.12678535E-18
  -1.18950000E-02   6.21938532E-18
  -1.18800001E-02   6.23140839E-18
  -1.18650002E-02   6.15735753E-18
  -1.18500004E-02   5.99284082E-18
  -1.18349995E-02   5.73471497E-18
  -1.18199997E-02   5.38121231E-18
  -1.18049998E-02   4.93202966E-18
  -1.17899999E-02   4.38840574E-18
  -1.17750000E-02   3.75316328E-18
  -1.17600001E-02   3.03071304E-18
  -1.17450003E-02   2.22703408E-18
  -1.17300004E-02   1.34961248E-18
  -1.17149996E-02   4.07336976E-19
  -1.16999997E-02  -5.89634090E-19
  -1.16849998E-02  -1.63002640E-18
  -1.16699999E-02  -2.70167156E-18
  -1.16550000E-02  -3.79171362E-18
  -1.16400002E-02  -4.88687718E-18
  -1.16250003E-02  -5.97373212E-18
  -1.16100004E-02  -7.03895794E-18
  -1.15949996E-02  -8.06964318E-18
  -1.15799997E-02  -9.05357783E-18
  -1.15649998E-02  -9.97947831E-18
  -1.15499999E-02  -1.08372828E-17
  -1.15350001E-02  -1.16183291E-17
  -1.15200002E-02  -1.23155629E-17
  -1.15050003E-02  -1.29236399E-17
  -1.14900004E-02  -1.34390297E-17
  -1.14749996E-02  -1.38600299E-17
  -1.14599997E-02  -1.41867017E-17
  -1.14449998E-02  -1.44208071E-17
  -1.14300000E-02  -1.45655587E-17
  -1.14150001E-02  -1.46254449E-17
  -1.14000002E-02  -1.46058623E-17
  -1.13850003E-02  -1.45127763E-17
  -1.13700004E-02  -1.43522900E-17
  -1.13549996E-02  -1.41301772E-17
  -1.13399997E-02  -1.38513991E-17
  -1.13249999E-02  -1.35195690E-17
  -1.13100000E-02  -1.31364826E-17
  -1.12950001E-02  -1.27016081E-17
  -1.12800002E-02  -1.22116351E-17
  -1.12650003E-02  -1.16601108E-17
  -1.12500004E-02  -1.10370891E-17
  -1.12349996E-02  -1.03289712E-17
  -1.12199998E-02  -9.51837310E-18
  -1.12049999E-02  -8.58418840E-18
  -1.11900000E-02  -7.50179445E-18
  -1.11750001E-02  -6.24339176E-18
  -1.11600002E-02  -4.77856450E-18
  -1.11450003E-02  -3.07499037E-18
  -1.11300005E-02  -1.09930877E-18
  -1.11149997E-02   1.18181062E-18
  -1.10999998E-02   3.80036883E-18
  -1.10849999E-02   6.78581379E-18
  -1.10700000E-02   1.01633796E-17
  -1.10550001E-02   1.39526162E-17
  -1.10400002E-02   1.81657068E-17
  -1.10250004E-02   2.28057500E-17
  -1.10099996E-02   2.78652300E-17
  -1.09949997E-02   3.33243474E-17
  -1.09799998E-02   3.91497040E-17
  -1.09649999E-02   4.52928899E-17
  -1.09500000E-02   5.16896000E-17
  -1.09350001E-02   5.82588996E-17
  -1.09200003E-02   6.49028276E-17
  -1.09050004E-02   7.15064023E-17
  -1.08899996E-02   7.79381749E-17
  -1.08749997E-02   8.40510926E-17
  -1.08599998E-02   8.96839543E-17
  -1.08449999E-02   9.46635022E-17
  -1.08300000E-02   9.88069095E-17
  -1.08150002E-02   1.01924686E-16
  -1.08000003E-02   1.03824369E-16
  -1.07850004E-02   1.04314609E-16
  -1.07699996E-02   1.03209522E-16
  -1.07549997E-02   1.00333547E-16
  -1.07399998E-02   9.55264501E-17
  -1.07249999E-02   8.86488470E-17
  -1.07100001E-02   7.95872422E-17
  -1.06950002E-02   6.82596059E-17
  -1.06800003E-02   5.46203670E-17
  -1.06650004E-02   3.86652541E-17
  -1.06499996E-02   2.04355549E-17
  -1.06349997E-02   2.20685681E-20
  -1.06199998E-02  -2.24320050E-17
  -1.06050000E-02  -4.67290541E-17
  -1.05900001E-02  -7.26158699E-17
  -1.05750002E-02  -9.97836509E-17
  -1.05600003E-02  -1.27869536E-16
  -1.05450004E-02  -1.56458923E-16
  -1.05299996E-02  -1.85089709E-16
  -1.05149997E-02  -2.13257353E-16
  -1.04999999E-02  -2.40422202E-16
  -1.04850000E-02  -2.66017050E-16
  -1.04700001E-02  -2.89457284E-16
  -1.04550002E-02  -3.10150590E-16
  -1.04400003E-02  -3.27509471E-16
  -1.04250005E-02  -3.40963451E-16
  -1.04099996E-02  -3.49972414E-16
  -1.03949998E-02  -3.54039681E-16
  -1.03799999E-02  -3.52726410E-16
  -1.03650000E-02  -3.45664511E-16
  -1.03500001E-02  -3.32570202E-16
  -1.03350002E-02  -3.13255892E-16
  -1.03200004E-02  -2.87640980E-16
  -1.03049995E-02  -2.55761969E-16
  -1.02899997E-02  -2.17779728E-16
  -1.02749998E-02  -1.73985107E-16
  -1.02599999E-02  -1.24801874E-16
  -1.02450000E-02  -7.07876816E-17
  -1.02300001E-02  -1.26305219E-17
  -1.02150002E-02   4.88554211E-17
  -1.02000004E-02   1.12739649E-16
  -1.01849996E-02   1.77986491E-16
  -1.01699997E-02   2.43470727E-16
  -1.01549998E-02   3.07994573E-16
  -1.01399999E-02   3.70309728E-16
  -1.01250000E-02   4.29140005E-16
  -1.01100001E-02   4.83206462E-16
  -1.00950003E-02   5.31256682E-16
  -1.00800004E-02   5.72090764E-16
  -1.00649996E-02   6.04592901E-16
  -1.00499997E-02   6.27759305E-16
  -1.00349998E-02   6.40728491E-16
  -1.00199999E-02   6.42807374E-16
  -1.00050000E-02   6.33498853E-16
  -9.99000017E-03   6.12522664E-16
  -9.97500028E-03   5.79836033E-16
  -9.96000040E-03   5.35650030E-16
  -9.94499959E-03   4.80437988E-16
  -9.92999971E-03   4.14943230E-16
  -9.91499983E-03   3.40177458E-16
  -9.89999995E-03   2.57414821E-16
  -9.88500006E-03   1.68179067E-16
  -9.87000018E-03   7.42233928E-17
  -9.85500030E-03  -2.24944224E-17
  -9.84000042E-03  -1.19845580E-16
  -9.82499961E-03  -2.15568006E-16
  -9.80999973E-03  -3.07311177E-16
  -9.79499985E-03  -3.92685242E-16
  -9.77999996E-03  -4.69314063E-16
  -9.76500008E-03  -5.34892836E-16
  -9.75000020E-03  -5.87246407E-16
  -9.73500032E-03  -6.24388908E-16
  -9.72000044E-03  -6.44585826E-16
  -9.70499963E-03  -6.46409223E-16
  -9.68999974E-03  -6.28795755E-16
  -9.67499986E-03  -5.91094160E-16
  -9.65999998E-03  -5.33113008E-16
  -9.64500010E-03  -4.55155325E-16
  -9.63000022E-03  -3.58048080E-16
  -9.61500034E-03  -2.43161110E-16
  -9.60000046E-03  -1.12412681E-16
  -9.58499964E-03   3.17336096E-17
  -9.56999976E-03   1.86287811E-16
  -9.55499988E-03   3.47763353E-16
  -9.54000000E-03   5.12222317E-16
  -9.52500012E-03   6.75334234E-16
  -9.51000024E-03   8.32444181E-16
  -9.49500035E-03   9.78659220E-16
  -9.47999954E-03   1.10894146E-15
  -9.46499966E-03   1.21821549E-15
  -9.44999978E-03   1.30147682E-15
  -9.43499990E-03   1.35392002E-15
  -9.42000002E-03   1.37105486E-15
  -9.40500014E-03   1.34884163E-15
  -9.39000025E-03   1.28381142E-15
  -9.37500037E-03   1.17319188E-15
  -9.35999956E-03   1.01502478E-15
  -9.34499968E-03   8.08272137E-16
  -9.32999980E-03   5.52915474E-16
  -9.31499992E-03   2.50033644E-16
  -9.30000003E-03  -9.81296471E-17
  -9.28500015E-03  -4.88123541E-16
  -9.27000027E-03  -9.15268545E-16
  -9.25500039E-03  -1.37365927E-15
  -9.23999958E-03  -1.85619139E-15
  -9.22499970E-03  -2.35461713E-15
  -9.20999981E-03  -2.85962706E-15
  -9.19499993E-03  -3.36096342E-15
  -9.18000005E-03  -3.84755441E-15
  -9.16500017E-03  -4.30767965E-15
  -9.15000029E-03  -4.72915520E-15
  -9.13500041E-03  -5.09954831E-15
  -9.11999959E-03  -5.40640801E-15
  -9.10499971E-03  -5.63750359E-15
  -9.08999983E-03  -5.78109727E-15
  -9.07499995E-03  -5.82619797E-15
  -9.06000007E-03  -5.76284160E-15
  -9.04500019E-03  -5.58235285E-15
  -9.03000031E-03  -5.27761327E-15
  -9.01500043E-03  -4.84331237E-15
  -8.99999961E-03  -4.27617426E-15
  -8.98499973E-03  -3.57516768E-15
  -8.96999985E-03  -2.74168895E-15
  -8.95499997E-03  -1.77971215E-15
  -8.94000009E-03  -6.95888494E-16
  -8.92500021E-03   5.00384872E-16
  -8.91000032E-03   1.79694059E-15
  -8.89500044E-03   3.17887590E-15
  -8.87999963E-03   4.62863780E-15
  -8.86499975E-03   6.12614758E-15
  -8.84999987E-03   7.64899805E-15
  -8.83499999E-03   9.17269343E-15
  -8.82000010E-03   1.06709414E-14
  -8.80500022E-03   1.21159974E-14
  -8.79000034E-03   1.34790479E-14
  -8.77500046E-03   1.47306517E-14
  -8.75999965E-03   1.58411932E-14
  -8.74499977E-03   1.67813947E-14
  -8.72999988E-03   1.75228281E-14
  -8.71500000E-03   1.80384441E-14
  -8.70000012E-03   1.83031284E-14
  -8.68500024E-03   1.82942447E-14
  -8.67000036E-03   1.79921436E-14
  -8.65499955E-03   1.73807010E-14
  -8.63999967E-03   1.64477857E-14
  -8.62499978E-03   1.51856931E-14
  -8.60999990E-03   1.35915567E-14
  -8.59500002E-03   1.16676739E-14
  -8.58000014E-03   9.42177787E-15
  -8.56500026E-03   6.86723703E-15
  -8.55000038E-03   4.02317822E-15
  -8.53499956E-03   9.14515427E-16
  -8.51999968E-03  -2.42809660E-15
  -8.50499980E-03  -5.96842962E-15
  -8.48999992E-03  -9.66489919E-15
  -8.47500004E-03  -1.34709248E-14
  -8.46000016E-03  -1.73353611E-14
  -8.44500028E-03  -2.12030151E-14
  -8.43000039E-03  -2.50152699E-14
  -8.41499958E-03  -2.87107950E-14
  -8.39999970E-03  -3.22263070E-14
  -8.38499982E-03  -3.54974195E-14
  -8.36999994E-03  -3.84595852E-14
  -8.35500006E-03  -4.10489988E-14
  -8.34000017E-03  -4.32036371E-14
  -8.32500029E-03  -4.48642757E-14
  -8.31000041E-03  -4.59754983E-14
  -8.29499960E-03  -4.64867775E-14
  -8.27999972E-03  -4.63534342E-14
  -8.26499984E-03  -4.55376737E-14
  -8.24999996E-03  -4.40094874E-14
  -8.23500007E-03  -4.17475570E-14
  -8.22000019E-03  -3.87400446E-14
  -8.20500031E-03  -3.49852492E-14
  -8.19000043E-03  -3.04922916E-14
  -8.17499962E-03  -2.52815313E-14
  -8.15999974E-03  -1.93849182E-14
  -8.14499985E-03  -1.28462135E-14
  -8.12999997E-03  -5.72101553E-15
  -8.11500009E-03   1.92334988E-15
  -8.10000021E-03   1.00081339E-14
  -8.08500033E-03   1.84435969E-14
  -8.07000045E-03   2.71297081E-14
  -8.05499963E-03   3.59569213E-14
  -8.03999975E-03   4.48072162E-14
  -8.02499987E-03   5.35552065E-14
  -8.00999999E-03   6.20696460E-14
  -7.99500011E-03   7.02147962E-14
  -7.98000023E-03   7.78521128E-14
  -7.96500035E-03   8.48421471E-14
  -7.95000046E-03   9.10463450E-14
  -7.93499965E-03   9.63291946E-14
  -7.91999977E-03   1.00560172E-13
  -7.90499989E-03   1.03616158E-13
  -7.89000001E-03   1.05383374E-13
  -7.87500013E-03   1.05759727E-13
  -7.86000025E-03   1.04656985E-13
  -7.84500036E-03   1.02002811E-13
  -7.82999955E-03   9.77428384E-14
  -7.81499967E-03   9.18425695E-14
  -7.79999979E-03   8.42890753E-14
  -7.78499991E-03   7.50925269E-14
  -7.77000003E-03   6.42875035E-14
  -7.75500014E-03   5.19340295E-14
  -7.73999980E-03   3.81182309E-14
  -7.72499992E-03   2.29527717E-14
  -7.71000003E-03   6.57691014E-15
  -7.69500015E-03  -1.08439326E-14
  -7.67999981E-03  -2.91189836E-14
  -7.66499992E-03  -4.80331649E-14
  -7.65000004E-03  -6.73489313E-14
  -7.63500016E-03  -8.68082123E-14
  -7.61999981E-03  -1.06135099E-13
  -7.60499993E-03  -1.25038624E-13
  -7.59000005E-03  -1.43216493E-13
  -7.57500017E-03  -1.60358516E-13
  -7.55999982E-03  -1.76151032E-13
  -7.54499994E-03  -1.90281425E-13
  -7.53000006E-03  -2.02442758E-13
  -7.51500018E-03  -2.12339098E-13
  -7.49999983E-03  -2.19690355E-13
  -7.48499995E-03  -2.24238027E-13
  -7.47000007E-03  -2.25750001E-13
  -7.45500019E-03  -2.24026391E-13
  -7.43999984E-03  -2.18904254E-13
  -7.42499996E-03  -2.10262553E-13
  -7.41000008E-03  -1.98026776E-13
  -7.39500020E-03  -1.82172894E-13
  -7.37999985E-03  -1.62731035E-13
  -7.36499997E-03  -1.39788327E-13
  -7.35000009E-03  -1.13491105E-13
  -7.33500021E-03  -8.40463427E-14
  -7.31999986E-03  -5.17221797E-14
  -7.30499998E-03  -1.68473362E-14
  -7.29000010E-03   2.01902348E-14
  -7.27500021E-03   5.89459173E-14
  -7.25999987E-03   9.89220031E-14
  -7.24499999E-03   1.39572476E-13
  -7.23000010E-03   1.80308744E-13
  -7.21500022E-03   2.20506529E-13
  -7.19999988E-03   2.59513819E-13
  -7.18499999E-03   2.96659642E-13
  -7.17000011E-03   3.31263771E-13
  -7.15500023E-03   3.62647358E-13
  -7.13999989E-03   3.90143755E-13
  -7.12500000E-03   4.13110382E-13
  -7.11000012E-03   4.30940575E-13
  -7.09499978E-03   4.43075291E-13
  -7.07999989E-03   4.49015635E-13
  -7.06500001E-03   4.48333916E-13
  -7.05000013E-03   4.40685303E-13
  -7.03499978E-03   4.25817991E-13
  -7.01999990E-03   4.03582875E-13
  -7.00500002E-03   3.73941736E-13
  -6.99000014E-03   3.36974128E-13
  -6.97499979E-03   2.92883014E-13
  -6.95999991E-03   2.41998018E-13
  -6.94500003E-03   1.84777269E-13
  -6.93000015E-03   1.21806645E-13
  -6.91499980E-03   5.37975290E-14
  -6.89999992E-03  -1.84186857E-14
  -6.88500004E-03  -9.38974647E-14
  -6.87000016E-03  -1.71591270E-13
  -6.85499981E-03  -2.50361147E-13
  -6.83999993E-03  -3.28991066E-13
  -6.82500005E-03  -4.06204259E-13
  -6.81000017E-03  -4.80681413E-13
  -6.79499982E-03  -5.51080828E-13
  -6.77999994E-03  -6.16059992E-13
  -6.76500006E-03  -6.74297640E-13
  -6.75000018E-03  -7.24517993E-13
  -6.73499983E-03  -7.65514171E-13
  -6.71999995E-03  -7.96172590E-13
  -6.70500007E-03  -8.15496704E-13
  -6.69000018E-03  -8.22629562E-13
  -6.67499984E-03  -8.16875430E-13
  -6.65999996E-03  -7.97720397E-13
  -6.64500007E-03  -7.64850043E-13
  -6.63000019E-03  -7.18164298E-13
  -6.61499985E-03  -6.57790120E-13
  -6.59999996E-03  -5.84090773E-13
  -6.58500008E-03  -4.97670861E-13
  -6.57000020E-03  -3.99377661E-13
  -6.55499985E-03  -2.90298764E-13
  -6.53999997E-03  -1.71754538E-13
  -6.52500009E-03  -4.52869655E-14
  -6.51000021E-03   8.73565136E-14
  -6.49499986E-03   2.24243489E-13
  -6.47999998E-03   3.63280966E-13
  -6.46500010E-03   5.02244025E-13
  -6.45000022E-03   6.38807800E-13
  -6.43499987E-03   7.70583684E-13
  -6.41999999E-03   8.95157375E-13
  -6.40500011E-03   1.01012872E-12
  -6.39000023E-03   1.11315568E-12
  -6.37499988E-03   1.20199586E-12
  -6.36000000E-03   1.27455132E-12
  -6.34500012E-03   1.32890975E-12
  -6.32999977E-03   1.36338824E-12
  -6.31499989E-03   1.37657095E-12
  -6.30000001E-03   1.36734645E-12
  -6.28500013E-03   1.33494062E-12
  -6.26999978E-03   1.27894396E-12
  -6.25499990E-03   1.19933566E-12
  -6.24000002E-03   1.09650006E-12
  -6.22500014E-03   9.71238389E-13
  -6.20999979E-03   8.24771620E-13
  -6.19499991E-03   6.58737930E-13
  -6.18000003E-03   4.75181038E-13
  -6.16500014E-03   2.76532459E-13
  -6.14999980E-03   6.55845482E-14
  -6.13499992E-03  -1.54542435E-13
  -6.12000003E-03  -3.80442260E-13
  -6.10500015E-03  -6.08470143E-13
  -6.08999981E-03  -8.34796045E-13
  -6.07499992E-03  -1.05546561E-12
  -6.06000004E-03  -1.26646339E-12
  -6.04500016E-03  -1.46378103E-12
  -6.02999981E-03  -1.64348851E-12
  -6.01499993E-03  -1.80180588E-12
  -6.00000005E-03  -1.93517576E-12
  -5.98500017E-03  -2.04033491E-12
  -5.96999982E-03  -2.11438267E-12
  -5.95499994E-03  -2.15484813E-12
  -5.94000006E-03  -2.15974851E-12
  -5.92500018E-03  -2.12764463E-12
  -5.90999983E-03  -2.05768757E-12
  -5.89499995E-03  -1.94965637E-12
  -5.88000007E-03  -1.80398567E-12
  -5.86500019E-03  -1.62178452E-12
  -5.84999984E-03  -1.40484261E-12
  -5.83499996E-03  -1.15562497E-12
  -5.82000008E-03  -8.77254378E-13
  -5.80500020E-03  -5.73480933E-13
  -5.78999985E-03  -2.48640491E-13
  -5.77499997E-03   9.23999240E-14
  -5.76000009E-03   4.44307433E-13
  -5.74500021E-03   8.01360226E-13
  -5.72999986E-03   1.15753370E-12
  -5.71499998E-03   1.50659563E-12
  -5.70000010E-03   1.84220738E-12
  -5.68500021E-03   2.15803330E-12
  -5.66999987E-03   2.44785008E-12
  -5.65499999E-03   2.70566295E-12
  -5.64000010E-03   2.92581866E-12
  -5.62500022E-03   3.10311716E-12
  -5.60999988E-03   3.23292044E-12
  -5.59500000E-03   3.31125340E-12
  -5.58000011E-03   3.33489920E-12
  -5.56500023E-03   3.30148344E-12
  -5.54999989E-03   3.20954374E-12
  -5.53500000E-03   3.05859092E-12
  -5.52000012E-03   2.84914887E-12
  -5.50499978E-03   2.58278598E-12
  -5.48999989E-03   2.26211974E-12
  -5.47500001E-03   1.89080999E-12
  -5.46000013E-03   1.47353223E-12
  -5.44499978E-03   1.01592714E-12
  -5.42999990E-03   5.24538908E-13
  -5.41500002E-03   6.73004099E-15
  -5.40000014E-03  -5.29421233E-13
  -5.38499979E-03  -1.07523430E-12
  -5.36999991E-03  -1.62156258E-12
  -5.35500003E-03  -2.15893449E-12
  -5.34000015E-03  -2.67771178E-12
  -5.32499980E-03  -3.16824843E-12
  -5.30999992E-03  -3.62106590E-12
  -5.29500004E-03  -4.02702004E-12
  -5.28000016E-03  -4.37747495E-12
  -5.26499981E-03  -4.66447193E-12
  -5.24999993E-03  -4.88089040E-12
  -5.23500005E-03  -5.02060069E-12
  -5.22000017E-03  -5.07860767E-12
  -5.20499982E-03  -5.05117085E-12
  -5.18999994E-03  -4.93591583E-12
  -5.17500006E-03  -4.73192058E-12
  -5.16000018E-03  -4.43977710E-12
  -5.14499983E-03  -4.06163167E-12
  -5.12999995E-03  -3.60120180E-12
  -5.11500007E-03  -3.06375758E-12
  -5.10000018E-03  -2.45608481E-12
  -5.08499984E-03  -1.78641184E-12
  -5.06999996E-03  -1.06431541E-12
  -5.05500007E-03  -3.00596652E-13
  -5.04000019E-03   4.92869742E-13
  -5.02499985E-03   1.30330469E-12
  -5.00999996E-03   2.11722220E-12
  -4.99500008E-03   2.92064008E-12
  -4.98000020E-03   3.69930822E-12
  -4.96499985E-03   4.43894921E-12
  -4.94999997E-03   5.12550549E-12
  -4.93500009E-03   5.74539158E-12
  -4.92000021E-03   6.28574580E-12
  -4.90499986E-03   6.73468009E-12
  -4.88999998E-03   7.08151463E-12
  -4.87500010E-03   7.31700117E-12
  -4.86000022E-03   7.43353556E-12
  -4.84499987E-03   7.42533552E-12
  -4.82999999E-03   7.28860201E-12
  -4.81500011E-03   7.02164845E-12
  -4.80000023E-03   6.62499352E-12
  -4.78499988E-03   6.10142796E-12
  -4.77000000E-03   5.45603103E-12
  -4.75500012E-03   4.69615709E-12
  -4.73999977E-03   3.83138183E-12
  -4.72499989E-03   2.87340095E-12
  -4.71000001E-03   1.83589905E-12
  -4.69500013E-03   7.34371223E-13
  -4.67999978E-03  -4.14086896E-13
  -4.66499990E-03  -1.59102408E-12
  -4.65000002E-03  -2.77691498E-12
  -4.63500014E-03  -3.95145895E-12
  -4.61999979E-03  -5.09390880E-12
  -4.60499991E-03  -6.18341576E-12
  -4.59000003E-03  -7.19938865E-12
  -4.57500014E-03  -8.12185128E-12
  -4.55999980E-03  -8.93181622E-12
  -4.54499992E-03  -9.61163180E-12
  -4.53000003E-03  -1.01453394E-11
  -4.51500015E-03  -1.05189893E-11
  -4.49999981E-03  -1.07209545E-11
  -4.48499992E-03  -1.07422005E-11
  -4.47000004E-03  -1.05765136E-11
  -4.45500016E-03  -1.02207088E-11
  -4.43999982E-03  -9.67476967E-12
  -4.42499993E-03  -8.94194614E-12
  -4.41000005E-03  -8.02880939E-12
  -4.39500017E-03  -6.94523735E-12
  -4.37999982E-03  -5.70434802E-12
  -4.36499994E-03  -4.32237492E-12
  -4.35000006E-03  -2.81849262E-12
  -4.33500018E-03  -1.21457206E-12
  -4.31999983E-03   4.65098988E-13
  -4.30499995E-03   2.19416521E-12
  -4.29000007E-03   3.94457991E-12
  -4.27500019E-03   5.68703548E-12
  -4.25999984E-03   7.39142081E-12
  -4.24499996E-03   9.02731015E-12
  -4.23000008E-03   1.05644599E-11
  -4.21500020E-03   1.19733416E-11
  -4.19999985E-03   1.32256575E-11
  -4.18499997E-03   1.42948552E-11
  -4.17000009E-03   1.51566312E-11
  -4.15500021E-03   1.57894166E-11
  -4.13999986E-03   1.61748132E-11
  -4.12499998E-03   1.62980168E-11
  -4.11000010E-03   1.61481609E-11
  -4.09500021E-03   1.57186278E-11
  -4.07999987E-03   1.50072905E-11
  -4.06499999E-03   1.40166819E-11
  -4.05000011E-03   1.27540947E-11
  -4.03500022E-03   1.12315999E-11
  -4.01999988E-03   9.46600263E-12
  -4.00500000E-03   7.47868434E-12
  -3.99000011E-03   5.29540300E-12
  -3.97500023E-03   2.94597896E-12
  -3.95999989E-03   4.63931736E-13
  -3.94500000E-03  -2.11397263E-12
  -3.93000012E-03  -4.74823566E-12
  -3.91499978E-03  -7.39720091E-12
  -3.89999989E-03  -1.00176803E-11
  -3.88500001E-03  -1.25656178E-11
  -3.86999990E-03  -1.49968076E-11
  -3.85500002E-03  -1.72676075E-11
  -3.83999990E-03  -1.93356772E-11
  -3.82500002E-03  -2.11607207E-11
  -3.80999991E-03  -2.27052023E-11
  -3.79500003E-03  -2.39350501E-11
  -3.77999991E-03  -2.48203021E-11
  -3.76500003E-03  -2.53357300E-11
  -3.74999992E-03  -2.54613882E-11
  -3.73500003E-03  -2.51830640E-11
  -3.71999992E-03  -2.44927117E-11
  -3.70500004E-03  -2.33887215E-11
  -3.68999992E-03  -2.18761450E-11
  -3.67500004E-03  -1.99667886E-11
  -3.65999993E-03  -1.76792140E-11
  -3.64500005E-03  -1.50386110E-11
  -3.62999993E-03  -1.20765802E-11
  -3.61500005E-03  -8.83077986E-12
  -3.59999994E-03  -5.34449525E-12
  -3.58500006E-03  -1.66606963E-12
  -3.56999994E-03   2.15173344E-12
  -3.55500006E-03   6.05247016E-12
  -3.53999995E-03   9.97683446E-12
  -3.52500007E-03   1.38635327E-11
  -3.50999995E-03   1.76502424E-11
  -3.49500007E-03   2.12745672E-11
  -3.47999996E-03   2.46750519E-11
  -3.46500007E-03   2.77921922E-11
  -3.44999996E-03   3.05694497E-11
  -3.43500008E-03   3.29542227E-11
  -3.41999996E-03   3.48988026E-11
  -3.40500008E-03   3.63612369E-11
  -3.38999997E-03   3.73061790E-11
  -3.37500009E-03   3.77055748E-11
  -3.35999997E-03   3.75393154E-11
  -3.34500009E-03   3.67957435E-11
  -3.32999998E-03   3.54720212E-11
  -3.31500010E-03   3.35744071E-11
  -3.29999998E-03   3.11183475E-11
  -3.28500010E-03   2.81284562E-11
  -3.26999999E-03   2.46383174E-11
  -3.25500011E-03   2.06901562E-11
  -3.23999999E-03   1.63343766E-11
  -3.22500011E-03   1.16288966E-11
  -3.21000000E-03   6.63843893E-12
  -3.19500011E-03   1.43360931E-12
  -3.18000000E-03  -3.91007452E-12
  -3.16499989E-03  -9.31329666E-12
  -3.15000000E-03  -1.46941313E-11
  -3.13499989E-03  -1.99692641E-11
  -3.12000001E-03  -2.50553103E-11
  -3.10499989E-03  -2.98701376E-11
  -3.09000001E-03  -3.43342021E-11
  -3.07499990E-03  -3.83718439E-11
  -3.06000002E-03  -4.19125984E-11
  -3.04499990E-03  -4.48923815E-11
  -3.03000002E-03  -4.72546793E-11
  -3.01499991E-03  -4.89515269E-11
  -3.00000003E-03  -4.99444999E-11
  -2.98499991E-03  -5.02054752E-11
  -2.97000003E-03  -4.97172269E-11
  -2.95499992E-03  -4.84739991E-11
  -2.94000003E-03  -4.64816970E-11
  -2.92499992E-03  -4.37580840E-11
  -2.91000004E-03  -4.03326504E-11
  -2.89499993E-03  -3.62463878E-11
  -2.88000004E-03  -3.15513206E-11
  -2.86499993E-03  -2.63098640E-11
  -2.85000005E-03  -2.05940022E-11
  -2.83499993E-03  -1.44843183E-11
  -2.82000005E-03  -8.06883640E-12
  -2.80499994E-03  -1.44174321E-12
  -2.79000006E-03   5.29801767E-12
  -2.77499994E-03   1.20482487E-11
  -2.76000006E-03   1.87050687E-11
  -2.74499995E-03   2.51645475E-11
  -2.73000007E-03   3.13243737E-11
  -2.71499995E-03   3.70855222E-11
  -2.70000007E-03   4.23538496E-11
  -2.68499996E-03   4.70417108E-11
  -2.67000007E-03   5.10694473E-11
  -2.65499996E-03   5.43667680E-11
  -2.64000008E-03   5.68739847E-11
  -2.62499996E-03   5.85431773E-11
  -2.61000008E-03   5.93390614E-11
  -2.59499997E-03   5.92397867E-11
  -2.58000009E-03   5.82374080E-11
  -2.56499997E-03   5.63382015E-11
  -2.55000009E-03   5.35628278E-11
  -2.53499998E-03   4.99460716E-11
  -2.52000010E-03   4.55365433E-11
  -2.50499998E-03   4.03959990E-11
  -2.49000010E-03   3.45985636E-11
  -2.47499999E-03   2.82296461E-11
  -2.46000011E-03   2.13847065E-11
  -2.44499999E-03   1.41678102E-11
  -2.43000011E-03   6.69004652E-12
  -2.41500000E-03  -9.32185861E-13
  -2.40000011E-03  -8.57902985E-12
  -2.38500000E-03  -1.61290894E-11
  -2.36999989E-03  -2.34613648E-11
  -2.35500000E-03  -3.04572687E-11
  -2.33999989E-03  -3.70025677E-11
  -2.32500001E-03  -4.29893135E-11
  -2.30999989E-03  -4.83176936E-11
  -2.29500001E-03  -5.28977417E-11
  -2.27999990E-03  -5.66509166E-11
  -2.26500002E-03  -5.95115346E-11
  -2.24999990E-03  -6.14280155E-11
  -2.23500002E-03  -6.23638155E-11
  -2.21999991E-03  -6.22982083E-11
  -2.20500003E-03  -6.12268500E-11
  -2.18999991E-03  -5.91619462E-11
  -2.17500003E-03  -5.61322586E-11
  -2.15999992E-03  -5.21828136E-11