  -1.49999997E-02   0.00000000    
  -1.49849998E-02   0.00000000    
  -1.49699999E-02   0.00000000    
  -1.49550000E-02   0.00000000    
  -1.49400001E-02   0.00000000    
  -1.49250003E-02   0.00000000    
  -1.49100004E-02   0.00000000    
  -1.48949996E-02   0.00000000    
  -1.48799997E-02   0.00000000    
  -1.48649998E-02   0.00000000    
  -1.48499999E-02   0.00000000    
  -1.48350000E-02   0.00000000    
  -1.48200002E-02   0.00000000    
  -1.48050003E-02   0.00000000    
  -1.47900004E-02   0.00000000    
  -1.47749996E-02   0.00000000    
  -1.47599997E-02   0.00000000    
  -1.47449998E-02   0.00000000    
  -1.47299999E-02   0.00000000    
  -1.47150001E-02   0.00000000    
  -1.47000002E-02   0.00000000    
  -1.46850003E-02   0.00000000    
  -1.46700004E-02   0.00000000    
  -1.46549996E-02   0.00000000    
  -1.46399997E-02   0.00000000    
  -1.46249998E-02   0.00000000    
  -1.46100000E-02   0.00000000    
  -1.45950001E-02   0.00000000    
  -1.45800002E-02   0.00000000    
  -1.45650003E-02   0.00000000    
  -1.45500004E-02   0.00000000    
  -1.45349996E-02   0.00000000    
  -1.45199997E-02   0.00000000    
  -1.45049999E-02   0.00000000    
  -1.44900000E-02   0.00000000    
  -1.44750001E-02   0.00000000    
  -1.44600002E-02   0.00000000    
  -1.44450003E-02   0.00000000    
  -1.44300004E-02   0.00000000    
  -1.44149996E-02   0.00000000    
  -1.43999998E-02   0.00000000    
  -1.43849999E-02   0.00000000    
  -1.43700000E-02   0.00000000    
  -1.43550001E-02   0.00000000    
  -1.43400002E-02   0.00000000    
  -1.43250003E-02   0.00000000    
  -1.43100005E-02   0.00000000    
  -1.42949997E-02   0.00000000    
  -1.42799998E-02   0.00000000    
  -1.42649999E-02   0.00000000    
  -1.42500000E-02   0.00000000    
  -1.42350001E-02   0.00000000    
  -1.42200002E-02   0.00000000    
  -1.42050004E-02   0.00000000    
  -1.41899996E-02   0.00000000    
  -1.41749997E-02   0.00000000    
  -1.41599998E-02   0.00000000    
  -1.41449999E-02   0.00000000    
  -1.41300000E-02   0.00000000    
  -1.41150001E-02   0.00000000    
  -1.41000003E-02   0.00000000    
  -1.40850004E-02   0.00000000    
  -1.40699996E-02   0.00000000    
  -1.40549997E-02   0.00000000    
  -1.40399998E-02   0.00000000    
  -1.40249999E-02   0.00000000    
  -1.40100000E-02   0.00000000    
  -1.39950002E-02   0.00000000    
  -1.39800003E-02   0.00000000    
  -1.39650004E-02   0.00000000    
  -1.39499996E-02   0.00000000    
  -1.39349997E-02   0.00000000    
  -1.39199998E-02   0.00000000    
  -1.39049999E-02   0.00000000    
  -1.38900001E-02   0.00000000    
  -1.38750002E-02   0.00000000    
  -1.38600003E-02   0.00000000    
  -1.38450004E-02   0.00000000    
  -1.38299996E-02   0.00000000    
  -1.38149997E-02   0.00000000    
  -1.37999998E-02   0.00000000    
  -1.37850000E-02   0.00000000    
  -1.37700001E-02   0.00000000    
  -1.37550002E-02   0.00000000    
  -1.37400003E-02   0.00000000    
  -1.37250004E-02   0.00000000    
  -1.37099996E-02   0.00000000    
  -1.36949997E-02   0.00000000    
  -1.36799999E-02   0.00000000    
  -1.36650000E-02   0.00000000    
  -1.36500001E-02   0.00000000    
  -1.36350002E-02   0.00000000    
  -1.36200003E-02   0.00000000    
  -1.36050005E-02   0.00000000    
  -1.35899996E-02   0.00000000    
  -1.35749998E-02   0.00000000    
  -1.35599999E-02   0.00000000    
  -1.35450000E-02   0.00000000    
  -1.35300001E-02   0.00000000    
  -1.35150002E-02   1.21003524E-38
  -1.35000004E-02   2.31183250E-38
  -1.34849995E-02   3.88342460E-38
  -1.34699997E-02   6.05277139E-38
  -1.34549998E-02   8.97050124E-38
  -1.34399999E-02   1.33199361E-37
  -1.34250000E-02   1.88897791E-37
  -1.34100001E-02   2.59134435E-37
  -1.33950002E-02   3.46528487E-37
  -1.33800004E-02   4.54004918E-37
  -1.33649996E-02   5.84795435E-37
  -1.33499997E-02   7.42451871E-37
  -1.33349998E-02   9.30737956E-37
  -1.33199999E-02   1.15361033E-36
  -1.33050000E-02   1.41506285E-36
  -1.32900001E-02   1.71013640E-36
  -1.32750003E-02   2.05118957E-36
  -1.32600004E-02   2.45041390E-36
  -1.32449996E-02   2.90095131E-36
  -1.32299997E-02   3.40352070E-36
  -1.32149998E-02   3.95688948E-36
  -1.31999999E-02   4.55717363E-36
  -1.31850000E-02   5.21486932E-36
  -1.31700002E-02   5.90289081E-36
  -1.31550003E-02   6.61372482E-36
  -1.31400004E-02   7.34035596E-36
  -1.31249996E-02   8.04419540E-36
  -1.31099997E-02   8.68692765E-36
  -1.30949998E-02   9.21856764E-36
  -1.30799999E-02   9.57549993E-36
  -1.30650001E-02   9.67807802E-36
  -1.30500002E-02   9.42839955E-36
  -1.30350003E-02   8.71023521E-36
  -1.30200004E-02   7.37932578E-36
  -1.30049996E-02   5.26940562E-36
  -1.29899997E-02   2.18326211E-36
  -1.29749998E-02  -2.10480644E-36
  -1.29600000E-02  -7.85187968E-36
  -1.29450001E-02  -1.53474061E-35
  -1.29300002E-02  -2.49130817E-35
  -1.29150003E-02  -3.69018011E-35
  -1.29000004E-02  -5.16951306E-35
  -1.28849996E-02  -6.96994796E-35
  -1.28699997E-02  -9.13397911E-35
  -1.28549999E-02  -1.17048553E-34
  -1.28400000E-02  -1.47258666E-34
  -1.28250001E-02  -1.82382391E-34
  -1.28100002E-02  -2.22802281E-34
  -1.27950003E-02  -2.68842285E-34
  -1.27800005E-02  -3.20739901E-34
  -1.27649996E-02  -3.78617708E-34
  -1.27499998E-02  -4.42445604E-34
  -1.27349999E-02  -5.11998733E-34
  -1.27200000E-02  -5.86810591E-34
  -1.27050001E-02  -6.66119772E-34
  -1.26900002E-02  -7.48812952E-34
  -1.26750004E-02  -8.33361945E-34
  -1.26599995E-02  -9.17758215E-34
  -1.26449997E-02  -9.99443501E-34
  -1.26299998E-02  -1.07523910E-33
  -1.26149999E-02  -1.14127534E-33
  -1.26000000E-02  -1.19292317E-33
  -1.25850001E-02  -1.22472984E-33
  -1.25700003E-02  -1.23036349E-33
  -1.25550004E-02  -1.20256700E-33
  -1.25399996E-02  -1.13312797E-33
  -1.25249997E-02  -1.01286755E-33
  -1.25099998E-02  -8.31653161E-34
  -1.24949999E-02  -5.78440934E-34
  -1.24800000E-02  -2.41352202E-34
  -1.24650002E-02   1.92208881E-34
  -1.24500003E-02   7.35391103E-34
  -1.24350004E-02   1.40167948E-33
  -1.24199996E-02   2.20462000E-33
  -1.24049997E-02   3.15748068E-33
  -1.23899998E-02   4.27284188E-33
  -1.23749999E-02   5.56211748E-33
  -1.23600001E-02   7.03499500E-33
  -1.23450002E-02   8.69879705E-33
  -1.23300003E-02   1.05577723E-32
  -1.23150004E-02   1.26123006E-32
  -1.22999996E-02   1.48580267E-32
  -1.22849997E-02   1.72849377E-32
  -1.22699998E-02   1.98763752E-32
  -1.22550000E-02   2.26080037E-32
  -1.22400001E-02   2.54467726E-32
  -1.22250002E-02   2.83498410E-32
  -1.22100003E-02   3.12635535E-32
  -1.21950004E-02   3.41224616E-32
  -1.21799996E-02   3.68484007E-32
  -1.21649997E-02   3.93497234E-32
  -1.21499998E-02   4.15206792E-32
  -1.21350000E-02   4.32409946E-32
  -1.21200001E-02   4.43757081E-32
  -1.21050002E-02   4.47753468E-32
  -1.20900003E-02   4.42764171E-32
  -1.20750004E-02   4.27023214E-32
  -1.20599996E-02   3.98647780E-32
  -1.20449997E-02   3.55656983E-32
  -1.20299999E-02   2.95996795E-32
  -1.20150000E-02   2.17571059E-32
  -1.20000001E-02   1.18278631E-32
  -1.19850002E-02  -3.94219204E-34
  -1.19700003E-02  -1.51062617E-32
  -1.19550005E-02  -3.24905052E-32
  -1.19399996E-02  -5.27077972E-32
  -1.19249998E-02  -7.58903737E-32
  -1.19099999E-02  -1.02134049E-31
  -1.18950000E-02  -1.31489834E-31
  -1.18800001E-02  -1.63955013E-31
  -1.18650002E-02  -1.99463947E-31
  -1.18500004E-02  -2.37878491E-31
  -1.18349995E-02  -2.78978570E-31
  -1.18199997E-02  -3.22452488E-31
  -1.18049998E-02  -3.67887931E-31
  -1.17899999E-02  -4.14763261E-31
  -1.17750000E-02  -4.62439807E-31
  -1.17600001E-02  -5.10154862E-31
  -1.17450003E-02  -5.57016650E-31
  -1.17300004E-02  -6.02000468E-31
  -1.17149996E-02  -6.43946996E-31
  -1.16999997E-02  -6.81563191E-31
  -1.16849998E-02  -7.13425577E-31
  -1.16699999E-02  -7.37986450E-31
  -1.16550000E-02  -7.53583803E-31
  -1.16400002E-02  -7.58454534E-31
  -1.16250003E-02  -7.50751378E-31
  -1.16100004E-02  -7.28564628E-31
  -1.15949996E-02  -6.89947052E-31
  -1.15799997E-02  -6.32944134E-31
  -1.15649998E-02  -5.55628062E-31
  -1.15499999E-02  -4.56136618E-31
  -1.15350001E-02  -3.32715847E-31
  -1.15200002E-02  -1.83767077E-31
  -1.15050003E-02  -7.89761977E-33
  -1.14900004E-02   1.96025344E-31
  -1.14749996E-02   4.28817941E-31
  -1.14599997E-02   6.90920926E-31
  -1.14449998E-02   9.82339564E-31
  -1.14300000E-02   1.30258344E-30
  -1.14150001E-02   1.65060622E-30
  -1.14000002E-02   2.02474821E-30
  -1.13850003E-02   2.42268220E-30
  -1.13700004E-02   2.84136225E-30
  -1.13549996E-02   3.27698033E-30
  -1.13399997E-02   3.72493057E-30
  -1.13249999E-02   4.17978031E-30
  -1.13100000E-02   4.63525484E-30
  -1.12950001E-02   5.08423462E-30
  -1.12800002E-02   5.51876467E-30
  -1.12650003E-02   5.93007973E-30
  -1.12500004E-02   6.30864910E-30
  -1.12349996E-02   6.64423863E-30
  -1.12199998E-02   6.92599090E-30
  -1.12049999E-02   7.14252862E-30
  -1.11900000E-02   7.28207503E-30
  -1.11750001E-02   7.33259985E-30
  -1.11600002E-02   7.28198626E-30
  -1.11450003E-02   7.11821074E-30
  -1.11300005E-02   6.82955823E-30
  -1.11149997E-02   6.40483651E-30
  -1.10999998E-02   5.83362187E-30
  -1.10849999E-02   5.10651071E-30
  -1.10700000E-02   4.21538368E-30
  -1.10550001E-02   3.15367530E-30
  -1.10400002E-02   1.91665031E-30
  -1.10250004E-02   5.01672260E-31
  -1.10099996E-02  -1.09153039E-30
  -1.09949997E-02  -2.86061252E-30
  -1.09799998E-02  -4.80037851E-30
  -1.09649999E-02  -6.90257505E-30
  -1.09500000E-02  -9.15570695E-30
  -1.09350001E-02  -1.15448998E-29
  -1.09200003E-02  -1.40517940E-29
  -1.09050004E-02  -1.66544988E-29
  -1.08899996E-02  -1.93275797E-29
  -1.08749997E-02  -2.20421343E-29
  -1.08599998E-02  -2.47658867E-29
  -1.08449999E-02  -2.74633909E-29
  -1.08300000E-02  -3.00962605E-29
  -1.08150002E-02  -3.26234808E-29
  -1.08000003E-02  -3.50018057E-29
  -1.07850004E-02  -3.71861563E-29
  -1.07699996E-02  -3.91301599E-29
  -1.07549997E-02  -4.07866823E-29
  -1.07399998E-02  -4.21083999E-29
  -1.07249999E-02  -4.30484824E-29
  -1.07100001E-02  -4.35612101E-29
  -1.06950002E-02  -4.36026958E-29
  -1.06800003E-02  -4.31315562E-29
  -1.06650004E-02  -4.21096036E-29
  -1.06499996E-02  -4.05025264E-29
  -1.06349997E-02  -3.82805299E-29
  -1.06199998E-02  -3.54189440E-29
  -1.06050000E-02  -3.18987895E-29
  -1.05900001E-02  -2.77072798E-29
  -1.05750002E-02  -2.28382415E-29
  -1.05600003E-02  -1.72924856E-29
  -1.05450004E-02  -1.10780807E-29
  -1.05299996E-02  -4.21055569E-30
  -1.05149997E-02   3.28697787E-30
  -1.04999999E-02   1.13837957E-29
  -1.04850000E-02   2.00415821E-29
  -1.04700001E-02   2.92145397E-29
  -1.04550002E-02   3.88495368E-29
  -1.04400003E-02   4.88863221E-29
  -1.04250005E-02   5.92577468E-29
  -1.04099996E-02   6.98900236E-29
  -1.03949998E-02   8.07030068E-29
  -1.03799999E-02   9.16104148E-29
  -1.03650000E-02   1.02520128E-28
  -1.03500001E-02   1.13334309E-28
  -1.03350002E-02   1.23949698E-28
  -1.03200004E-02   1.34257672E-28
  -1.03049995E-02   1.44144373E-28
  -1.02899997E-02   1.53490803E-28
  -1.02749998E-02   1.62172895E-28
  -1.02599999E-02   1.70061600E-28
  -1.02450000E-02   1.77022898E-28
  -1.02300001E-02   1.82918085E-28
  -1.02150002E-02   1.87603873E-28
  -1.02000004E-02   1.90932891E-28
  -1.01849996E-02   1.92754123E-28
  -1.01699997E-02   1.92913746E-28
  -1.01549998E-02   1.91256098E-28
  -1.01399999E-02   1.87625094E-28
  -1.01250000E-02   1.81865842E-28
  -1.01100001E-02   1.73826709E-28
  -1.00950003E-02   1.63361820E-28
  -1.00800004E-02   1.50334011E-28
  -1.00649996E-02   1.34618134E-28
  -1.00499997E-02   1.16104831E-28
  -1.00349998E-02   9.47047221E-29
  -1.00199999E-02   7.03529811E-29
  -1.00050000E-02   4.30141166E-29
  -9.99000017E-03   1.26870304E-29
  -9.97500028E-03  -2.05898537E-29
  -9.96000040E-03  -5.67334304E-29
  -9.94499959E-03  -9.56109925E-29
  -9.92999971E-03  -1.37035597E-28
  -9.91499983E-03  -1.80761898E-28
  -9.89999995E-03  -2.26482741E-28
  -9.88500006E-03  -2.73826529E-28
  -9.87000018E-03  -3.22355799E-28
  -9.85500030E-03  -3.71566872E-28
  -9.84000042E-03  -4.20891045E-28
  -9.82499961E-03  -4.69697287E-28
  -9.80999973E-03  -5.17296646E-28
  -9.79499985E-03  -5.62948745E-28
  -9.77999996E-03  -6.05869297E-28
  -9.76500008E-03  -6.45240987E-28
  -9.75000020E-03  -6.80224349E-28
  -9.73500032E-03  -7.09972167E-28
  -9.72000044E-03  -7.33644253E-28
  -9.70499963E-03  -7.50424303E-28
  -9.68999974E-03  -7.59537418E-28
  -9.67499986E-03  -7.60269223E-28
  -9.65999998E-03  -7.51984691E-28
  -9.64500010E-03  -7.34147258E-28
  -9.63000022E-03  -7.06337696E-28
  -9.61500034E-03  -6.68271980E-28
  -9.60000046E-03  -6.19817653E-28
  -9.58499964E-03  -5.61008178E-28
  -9.56999976E-03  -4.92054927E-28
  -9.55499988E-03  -4.13356037E-28
  -9.54000000E-03  -3.25502022E-28
  -9.52500012E-03  -2.29277097E-28
  -9.51000024E-03  -1.25656469E-28
  -9.49500035E-03  -1.57989916E-29
  -9.47999954E-03   9.89650296E-29
  -9.46499966E-03   2.17150720E-28
  -9.44999978E-03   3.37140561E-28
  -9.43499990E-03   4.57210906E-28
  -9.42000002E-03   5.75562864E-28
  -9.40500014E-03   6.90357244E-28
  -9.39000025E-03   7.99752761E-28
  -9.37500037E-03   9.01947660E-28
  -9.35999956E-03   9.95222277E-28
  -9.34499968E-03   1.07798324E-27
  -9.32999980E-03   1.14880845E-27
  -9.31499992E-03   1.20648899E-27
  -9.30000003E-03   1.25007115E-27
  -9.28500015E-03   1.27889356E-27
  -9.27000027E-03   1.29262082E-27
  -9.25500039E-03   1.29127006E-27
  -9.23999958E-03   1.27523275E-27
  -9.22499970E-03   1.24528618E-27
  -9.20999981E-03   1.20259852E-27
  -9.19499993E-03   1.14872284E-27
  -9.18000005E-03   1.08558132E-27
  -9.16500017E-03   1.01543886E-27
  -9.15000029E-03   9.40866082E-28
  -9.13500041E-03   8.64691123E-28
  -9.11999959E-03   7.89941159E-28
  -9.10499971E-03   7.19773320E-28
  -9.08999983E-03   6.57397120E-28
  -9.07499995E-03   6.05988031E-28
  -9.06000007E-03   5.68594272E-28
  -9.04500019E-03   5.48038292E-28
  -9.03000031E-03   5.46814796E-28
  -9.01500043E-03   5.66986602E-28
  -8.99999961E-03   6.10082269E-28
  -8.98499973E-03   6.76995527E-28
  -8.96999985E-03   7.67891380E-28
  -8.95499997E-03   8.82119729E-28
  -8.94000009E-03   1.01813988E-27
  -8.92500021E-03   1.17345891E-27
  -8.91000032E-03   1.34458597E-27
  -8.89500044E-03   1.52700514E-27
  -8.87999963E-03   1.71516946E-27
  -8.86499975E-03   1.90251815E-27
  -8.84999987E-03   2.08151831E-27
  -8.83499999E-03   2.24373439E-27
  -8.82000010E-03   2.37992382E-27
  -8.80500022E-03   2.48016270E-27
  -8.79000034E-03   2.53399899E-27
  -8.77500046E-03   2.53063420E-27
  -8.75999965E-03   2.45913347E-27
  -8.74499977E-03   2.30866076E-27
  -8.72999988E-03   2.06873707E-27
  -8.71500000E-03   1.72952053E-27
  -8.70000012E-03   1.28210389E-27
  -8.68500024E-03   7.18823404E-28
  -8.67000036E-03   3.35768733E-29
  -8.65499955E-03  -7.77856093E-28
  -8.63999967E-03  -1.71749887E-27
  -8.62499978E-03  -2.78487217E-27
  -8.60999990E-03  -3.97670676E-27
  -8.59500002E-03  -5.28668386E-27
  -8.58000014E-03  -6.70520522E-27
  -8.56500026E-03  -8.21920879E-27
  -8.55000038E-03  -9.81203298E-27
  -8.53499956E-03  -1.14633346E-26
  -8.51999968E-03  -1.31490833E-26
  -8.50499980E-03  -1.48416090E-26
  -8.48999992E-03  -1.65097463E-26
  -8.47500004E-03  -1.81190534E-26
  -8.46000016E-03  -1.96321179E-26
  -8.44500028E-03  -2.10089513E-26
  -8.43000039E-03  -2.22074806E-26
  -8.41499958E-03  -2.31841243E-26
  -8.39999970E-03  -2.38944612E-26
  -8.38499982E-03  -2.42939700E-26
  -8.36999994E-03  -2.43388734E-26
  -8.35500006E-03  -2.39870137E-26
  -8.34000017E-03  -2.31988123E-26
  -8.32500029E-03  -2.19382618E-26
  -8.31000041E-03  -2.01739559E-26
  -8.29499960E-03  -1.78801225E-26
  -8.27999972E-03  -1.50376533E-26
  -8.26499984E-03  -1.16351075E-26
  -8.24999996E-03  -7.66967704E-27
  -8.23500007E-03  -3.14806654E-27
  -8.22000019E-03   1.91270921E-27
  -8.20500031E-03   7.48463754E-27
  -8.19000043E-03   1.35281664E-26
  -8.17499962E-03   1.99918123E-26
  -8.15999974E-03   2.68119493E-26
  -8.14499985E-03   3.39127883E-26
  -8.12999997E-03   4.12065839E-26
  -8.11500009E-03   4.85940290E-26
  -8.10000021E-03   5.59649357E-26
  -8.08500033E-03   6.31991169E-26
  -8.07000045E-03   7.01675135E-26
  -8.05499963E-03   7.67336219E-26
  -8.03999975E-03   8.27550712E-26
  -8.02499987E-03   8.80854782E-26
  -8.00999999E-03   9.25765312E-26
  -7.99500011E-03   9.60802630E-26
  -7.98000023E-03   9.84514865E-26
  -7.96500035E-03   9.95503389E-26
  -7.95000046E-03   9.92450374E-26
  -7.93499965E-03   9.74146459E-26
  -7.91999977E-03   9.39519287E-26
  -7.90499989E-03   8.87661358E-26
  -7.89000001E-03   8.17858446E-26
  -7.87500013E-03   7.29616712E-26
  -7.86000025E-03   6.22688218E-26
  -7.84500036E-03   4.97095245E-26
  -7.82999955E-03   3.53151673E-26
  -7.81499967E-03   1.91482133E-26
  -7.79999979E-03   1.30375163E-27
  -7.78499991E-03  -1.80893217E-26
  -7.77000003E-03  -3.88675127E-26
  -7.75500014E-03  -6.08324602E-26
  -7.73999980E-03  -8.37511005E-26
  -7.72499992E-03  -1.07356463E-25
  -7.71000003E-03  -1.31348915E-25
  -7.69500015E-03  -1.55398166E-25
  -7.67999981E-03  -1.79145751E-25
  -7.66499992E-03  -2.02208223E-25
  -7.65000004E-03  -2.24180957E-25
  -7.63500016E-03  -2.44642653E-25
  -7.61999981E-03  -2.63160374E-25
  -7.60499993E-03  -2.79295217E-25
  -7.59000005E-03  -2.92608700E-25
  -7.57500017E-03  -3.02669511E-25
  -7.55999982E-03  -3.09060665E-25
  -7.54499994E-03  -3.11387336E-25
  -7.53000006E-03  -3.09284825E-25
  -7.51500018E-03  -3.02426764E-25
  -7.49999983E-03  -2.90533379E-25
  -7.48499995E-03  -2.73379993E-25
  -7.47000007E-03  -2.50805013E-25
  -7.45500019E-03  -2.22717916E-25
  -7.43999984E-03  -1.89106735E-25
  -7.42499996E-03  -1.50044709E-25
  -7.41000008E-03  -1.05696391E-25
  -7.39500020E-03  -5.63227088E-26
  -7.37999985E-03  -2.28475727E-27
  -7.36499997E-03   5.59535342E-26
  -7.35000009E-03   1.17824437E-25
  -7.33500021E-03   1.82656946E-25
  -7.31999986E-03   2.49679284E-25
  -7.30499998E-03   3.18023086E-25
  -7.29000010E-03   3.86729839E-25
  -7.27500021E-03   4.54759231E-25
  -7.25999987E-03   5.20999881E-25
  -7.24499999E-03   5.84281860E-25
  -7.23000010E-03   6.43391552E-25
  -7.21500022E-03   6.97088575E-25
  -7.19999988E-03   7.44124357E-25
  -7.18499999E-03   7.83262261E-25
  -7.17000011E-03   8.13299865E-25
  -7.15500023E-03   8.33091646E-25
  -7.13999989E-03   8.41572788E-25
  -7.12500000E-03   8.37783593E-25
  -7.11000012E-03   8.20893933E-25
  -7.09499978E-03   7.90227114E-25
  -7.07999989E-03   7.45282848E-25
  -7.06500001E-03   6.85759102E-25
  -7.05000013E-03   6.11571960E-25
  -7.03499978E-03   5.22872736E-25
  -7.01999990E-03   4.20062861E-25
  -7.00500002E-03   3.03804411E-25
  -6.99000014E-03   1.75027848E-25
  -6.97499979E-03   3.49344001E-26
  -6.95999991E-03  -1.15005394E-25
  -6.94500003E-03  -2.73058804E-25
  -6.93000015E-03  -4.37242378E-25
  -6.91499980E-03  -6.05339466E-25
  -6.89999992E-03  -7.74922522E-25
  -6.88500004E-03  -9.43381303E-25
  -6.87000016E-03  -1.10795554E-24
  -6.85499981E-03  -1.26577278E-24
  -6.83999993E-03  -1.41389009E-24
  -6.82500005E-03  -1.54934067E-24
  -6.81000017E-03  -1.66918294E-24
  -6.79499982E-03  -1.77055235E-24
  -6.77999994E-03  -1.85071462E-24
  -6.76500006E-03  -1.90712094E-24
  -6.75000018E-03  -1.93746210E-24
  -6.73499983E-03  -1.93972081E-24
  -6.71999995E-03  -1.91222447E-24
  -6.70500007E-03  -1.85369178E-24
  -6.69000018E-03  -1.76327629E-24
  -6.67499984E-03  -1.64060615E-24
  -6.65999996E-03  -1.48581518E-24
  -6.64500007E-03  -1.29956807E-24
  -6.63000019E-03  -1.08307772E-24
  -6.61499985E-03  -8.38113830E-25
  -6.59999996E-03  -5.67002207E-25
  -6.58500008E-03  -2.72614206E-25
  -6.57000020E-03   4.16530730E-26
  -6.55499985E-03   3.71906674E-25
  -6.53999997E-03   7.13798276E-25
  -6.52500009E-03   1.06257306E-24
  -6.51000021E-03   1.41312934E-24
  -6.49499986E-03   1.76008417E-24
  -6.47999998E-03   2.09784975E-24
  -6.46500010E-03   2.42071356E-24
  -6.45000022E-03   2.72292696E-24
  -6.43499987E-03   2.99879537E-24
  -6.41999999E-03   3.24277447E-24
  -6.40500011E-03   3.44956370E-24
  -6.39000023E-03   3.61420371E-24
  -6.37499988E-03   3.73217155E-24
  -6.36000000E-03   3.79946848E-24
  -6.34500012E-03   3.81270991E-24
  -6.32999977E-03   3.76920225E-24
  -6.31499989E-03   3.66701597E-24
  -6.30000001E-03   3.50504902E-24
  -6.28500013E-03   3.28307579E-24
  -6.26999978E-03   3.00178969E-24
  -6.25499990E-03   2.66283016E-24
  -6.24000002E-03   2.26879532E-24
  -6.22500014E-03   1.82324155E-24
  -6.20999979E-03   1.33066882E-24
  -6.19499991E-03   7.96488549E-25
  -6.18000003E-03   2.26979984E-25
  -6.16500014E-03  -3.70770986E-25
  -6.14999980E-03  -9.88946994E-25
  -6.13499992E-03  -1.61908642E-24
  -6.12000003E-03  -2.25218605E-24
  -6.10500015E-03  -2.87881456E-24
  -6.08999981E-03  -3.48923512E-24
  -6.07499992E-03  -4.07354045E-24
  -6.06000004E-03  -4.62179326E-24
  -6.04500016E-03  -5.12417302E-24
  -6.02999981E-03  -5.57112938E-24
  -6.01499993E-03  -5.95353286E-24
  -6.00000005E-03  -6.26283220E-24
  -5.98500017E-03  -6.49120270E-24
  -5.96999982E-03  -6.63169725E-24
  -5.95499994E-03  -6.67838914E-24
  -5.94000006E-03  -6.62650023E-24
  -5.92500018E-03  -6.47252879E-24
  -5.90999983E-03  -6.21435867E-24
  -5.89499995E-03  -5.85135210E-24
  -5.88000007E-03  -5.38443006E-24
  -5.86500019E-03  -4.81613269E-24
  -5.84999984E-03  -4.15065594E-24
  -5.83499996E-03  -3.39387052E-24
  -5.82000008E-03  -2.55331437E-24
  -5.80500020E-03  -1.63816137E-24
  -5.78999985E-03  -6.59165270E-25
  -5.77499997E-03   3.71425247E-25
  -5.76000009E-03   1.43997407E-24
  -5.74500021E-03   2.53159684E-24
  -5.72999986E-03   3.63032211E-24
  -5.71499998E-03   4.71928030E-24
  -5.70000010E-03   5.78091708E-24
  -5.68500021E-03   6.79722867E-24
  -5.66999987E-03   7.75001566E-24
  -5.65499999E-03   8.62116028E-24
  -5.64000010E-03   9.39291789E-24
  -5.62500022E-03   1.00482112E-23
  -5.60999988E-03   1.05709444E-23
  -5.59500000E-03   1.09463152E-23
  -5.58000011E-03   1.11611220E-23
  -5.56500023E-03   1.12040707E-23
  -5.54999989E-03   1.10660674E-23
  -5.53500000E-03   1.07404895E-23
  -5.52000012E-03   1.02234425E-23
  -5.50499978E-03   9.51397569E-24
  -5.48999989E-03   8.61427668E-24
  -5.47500001E-03   7.52981145E-24
  -5.46000013E-03   6.26943142E-24
  -5.44499978E-03   4.84541797E-24
  -5.42999990E-03   3.27348285E-24
  -5.41500002E-03   1.57270041E-24
  -5.40000014E-03  -2.34616305E-25
  -5.38499979E-03  -2.12310790E-24
  -5.36999991E-03  -4.06462001E-24
  -5.35500003E-03  -6.02852592E-24
  -5.34000015E-03  -7.98211037E-24
  -5.32499980E-03  -9.89101650E-24
  -5.30999992E-03  -1.17197436E-23
  -5.29500004E-03  -1.34322076E-23
  -5.28000016E-03  -1.49923346E-23
  -5.26499981E-03  -1.63647112E-23
  -5.24999993E-03  -1.75152365E-23
  -5.23500005E-03  -1.84118147E-23
  -5.22000017E-03  -1.90250500E-23
  -5.20499982E-03  -1.93289223E-23
  -5.18999994E-03  -1.93014700E-23
  -5.17500006E-03  -1.89254058E-23
  -5.16000018E-03  -1.81887201E-23
  -5.14499983E-03  -1.70851968E-23
  -5.12999995E-03  -1.56148800E-23
  -5.11500007E-03  -1.37844277E-23
  -5.10000018E-03  -1.16073901E-23
  -5.08499984E-03  -9.10435494E-24
  -5.06999996E-03  -6.30298641E-24
  -5.05500007E-03  -3.23793481E-24
  -5.04000019E-03   4.93993943E-26
  -5.02499985E-03   3.51123133E-24
  -5.00999996E-03   7.09389638E-24
  -4.99500008E-03   1.07385063E-23
  -4.98000020E-03   1.43817295E-23
  -4.96499985E-03   1.79567019E-23
  -4.94999997E-03   2.13940592E-23
  -4.93500009E-03   2.46230862E-23
  -4.92000021E-03   2.75729195E-23
  -4.90499986E-03   3.01738760E-23
  -4.88999998E-03   3.23587998E-23
  -4.87500010E-03   3.40644370E-23
  -4.86000022E-03   3.52328473E-23
  -4.84499987E-03   3.58127547E-23
  -4.82999999E-03   3.57608824E-23
  -4.81500011E-03   3.50431957E-23
  -4.80000023E-03   3.36360603E-23
  -4.78499988E-03   3.15272394E-23
  -4.77000000E-03   2.87167678E-23
  -4.75500012E-03   2.52176238E-23
  -4.73999977E-03   2.10562169E-23
  -4.72499989E-03   1.62726322E-23
  -4.71000001E-03   1.09206425E-23
  -4.69500013E-03   5.06747522E-24
  -4.67999978E-03  -1.20668917E-24
  -4.66499990E-03  -7.80948551E-24
  -4.65000002E-03  -1.46374024E-23
  -4.63500014E-03  -2.15770671E-23
  -4.61999979E-03  -2.85067920E-23
  -4.60499991E-03  -3.52983638E-23
  -4.59000003E-03  -4.18190217E-23
  -4.57500014E-03  -4.79336656E-23
  -4.55999980E-03  -5.35071604E-23
  -4.54499992E-03  -5.84068512E-23
  -4.53000003E-03  -6.25050720E-23
  -4.51500015E-03  -6.56817517E-23
  -4.49999981E-03  -6.78270179E-23
  -4.48499992E-03  -6.88437271E-23
  -4.47000004E-03  -6.86499261E-23
  -4.45500016E-03  -6.71811365E-23
  -4.43999982E-03  -6.43924753E-23
  -4.42499993E-03  -6.02605103E-23
  -4.41000005E-03  -5.47848563E-23
  -4.39500017E-03  -4.79893908E-23
  -4.37999982E-03  -3.99231618E-23
  -4.36499994E-03  -3.06608588E-23
  -4.35000006E-03  -2.03028595E-23
  -4.33500018E-03  -8.97483502E-24
  -4.31999983E-03   3.17314270E-24
  -4.30499995E-03   1.59679205E-23
  -4.29000007E-03   2.92150818E-23
  -4.27500019E-03   4.27012806E-23
  -4.25999984E-03   5.61968984E-23
  -4.24499996E-03   6.94592847E-23
  -4.23000008E-03   8.22362818E-23
  -4.21500020E-03   9.42701151E-23
  -4.19999985E-03   1.05301615E-22
  -4.18499997E-03   1.15074662E-22
  -4.17000009E-03   1.23340801E-22
  -4.15500021E-03   1.29863986E-22
  -4.13999986E-03   1.34425394E-22
  -4.12499998E-03   1.36828101E-22
  -4.11000010E-03   1.36901711E-22
  -4.09500021E-03   1.34506691E-22
  -4.07999987E-03   1.29538597E-22
  -4.06499999E-03   1.21931693E-22
  -4.05000011E-03   1.11662251E-22
  -4.03500022E-03   9.87512805E-23
  -4.01999988E-03   8.32666414E-23
  -4.00500000E-03   6.53245113E-23
  -3.99000011E-03   4.50900682E-23
  -3.97500023E-03   2.27774357E-23
  -3.95999989E-03  -1.35120750E-24
  -3.94500000E-03  -2.69873639E-23
  -3.93000012E-03  -5.37789009E-23
  -3.91499978E-03  -8.13333958E-23
  -3.89999989E-03  -1.09222563E-22
  -3.88500001E-03  -1.36987425E-22
  -3.86999990E-03  -1.64144259E-22
  -3.85500002E-03  -1.90191221E-22
  -3.83999990E-03  -2.14615781E-22
  -3.82500002E-03  -2.36902629E-22
  -3.80999991E-03  -2.56542085E-22
  -3.79500003E-03  -2.73038896E-22
  -3.77999991E-03  -2.85921184E-22
  -3.76500003E-03  -2.94749711E-22
  -3.74999992E-03  -2.99126892E-22
  -3.73500003E-03  -2.98705703E-22
  -3.71999992E-03  -2.93198394E-22
  -3.70500004E-03  -2.82384436E-22
  -3.68999992E-03  -2.66118023E-22
  -3.67500004E-03  -2.44334683E-22
  -3.65999993E-03  -2.17056933E-22
  -3.64500005E-03  -1.84398837E-22
  -3.62999993E-03  -1.46569283E-22
  -3.61500005E-03  -1.03873935E-22
  -3.59999994E-03  -5.67157164E-23
  -3.58500006E-03  -5.59362256E-24
  -3.56999994E-03   4.88999003E-23
  -3.55500006E-03   1.06083427E-22
  -3.53999995E-03   1.65192636E-22
  -3.52500007E-03   2.25388087E-22
  -3.50999995E-03   2.85764775E-22
  -3.49500007E-03   3.45362976E-22
  -3.47999996E-03   4.03180876E-22
  -3.46500007E-03   4.58188337E-22
  -3.44999996E-03   5.09342319E-22
  -3.43500008E-03   5.55602586E-22
  -3.41999996E-03   5.95949048E-22
  -3.40500008E-03   6.29398871E-22
  -3.38999997E-03   6.55024910E-22
  -3.37500009E-03   6.71973075E-22
  -3.35999997E-03   6.79480456E-22
  -3.34500009E-03   6.76892185E-22
  -3.32999998E-03   6.63677742E-22
  -3.31500010E-03   6.39446156E-22
  -3.29999998E-03   6.03959634E-22
  -3.28500010E-03   5.57145119E-22
  -3.26999999E-03   4.99104494E-22
  -3.25500011E-03   4.30121701E-22
  -3.23999999E-03   3.50667656E-22
  -3.22500011E-03   2.61402276E-22
  -3.21000000E-03   1.63173556E-22
  -3.19500011E-03   5.70135020E-23
  -3.18000000E-03  -5.58690604E-23
  -3.16499989E-03  -1.74099065E-22
  -3.15000000E-03  -2.96148607E-22
  -3.13499989E-03  -4.20354214E-22
  -3.12000001E-03  -5.44936278E-22
  -3.10499989E-03  -6.68022056E-22
  -3.09000001E-03  -7.87670520E-22
  -3.07499990E-03  -9.01900407E-22
  -3.06000002E-03  -1.00871939E-21
  -3.04499990E-03  -1.10615545E-21
  -3.03000002E-03  -1.19228887E-21
  -3.01499991E-03  -1.26528493E-21
  -3.00000003E-03  -1.32342708E-21
  -2.98499991E-03  -1.36514891E-21
  -2.97000003E-03  -1.38906607E-21
  -2.95499992E-03  -1.39400633E-21
  -2.94000003E-03  -1.37903650E-21
  -2.92499992E-03  -1.34348843E-21
  -2.91000004E-03  -1.28698024E-21
  -2.89499993E-03  -1.20943509E-21
  -2.88000004E-03  -1.11109471E-21
  -2.86499993E-03  -9.92529190E-22
  -2.85000005E-03  -8.54641353E-22
  -2.83499993E-03  -6.98666159E-22
  -2.82000005E-03  -5.26164822E-22
  -2.80499994E-03  -3.39013113E-22
  -2.79000006E-03  -1.39384578E-22
  -2.77499994E-03   7.02720134E-23
  -2.76000006E-03   2.87260808E-22
  -2.74499995E-03   5.08670840E-22
  -2.73000007E-03   7.31414161E-22
  -2.71499995E-03   9.52267648E-22
  -2.70000007E-03   1.16791773E-21
  -2.68499996E-03   1.37500975E-21
  -2.67000007E-03   1.57019802E-21
  -2.65499996E-03   1.75019927E-21
  -2.64000008E-03   1.91184522E-21
  -2.62499996E-03   2.05213675E-21
  -2.61000008E-03   2.16829625E-21
  -2.59499997E-03   2.25781816E-21
  -2.58000009E-03   2.31851779E-21
  -2.56499997E-03   2.34857558E-21
  -2.55000009E-03   2.34657690E-21
  -2.53499998E-03   2.31154794E-21
  -2.52000010E-03   2.24298505E-21
  -2.50499998E-03   2.14087691E-21
  -2.49000010E-03   2.00571972E-21
  -2.47499999E-03   1.83852584E-21
  -2.46000011E-03   1.64082402E-21
  -2.44499999E-03   1.41464949E-21
  -2.43000011E-03   1.16252935E-21
  -2.41500000E-03   8.87456048E-22
  -2.40000011E-03   5.92855501E-22
  -2.38500000E-03   2.82545086E-22
  -2.36999989E-03  -3.93135585E-23
  -2.35500000E-03  -3.68271118E-22
  -2.33999989E-03  -6.99650456E-22
  -2.32500001E-03  -1.02861383E-21
  -2.30999989E-03  -1.35023482E-21
  -2.29500001E-03  -1.65957139E-21
  -2.27999990E-03  -1.95174396E-21
  -2.26500002E-03  -2.22201190E-21
  -2.24999990E-03  -2.46585227E-21
  -2.23500002E-03  -2.67903606E-21
  -2.21999991E-03  -2.85770121E-21
  -2.20500003E-03  -2.99842329E-21
  -2.18999991E-03  -3.09828031E-21
  -2.17500003E-03  -3.15491007E-21
  -2.15999992E-03  -3.16656250E-21