  -1.49999997E-02   0.00000000    
  -1.49849998E-02   0.00000000    
  -1.49699999E-02  -3.10220162E-20
  -1.49550000E-02  -2.15485590E-19
  -1.49400001E-02  -8.21840852E-19
  -1.49250003E-02  -2.30885031E-18
  -1.49100004E-02  -5.35539766E-18
  -1.48949996E-02  -1.08723859E-17
  -1.48799997E-02  -1.99941631E-17
  -1.48649998E-02  -3.40479518E-17
  -1.48499999E-02  -5.45008957E-17
  -1.48350000E-02  -8.28855488E-17
  -1.48200002E-02  -1.20705821E-16
  -1.48050003E-02  -1.69326624E-16
  -1.47900004E-02  -2.29851443E-16
  -1.47749996E-02  -3.02993108E-16
  -1.47599997E-02  -3.88943845E-16
  -1.47449998E-02  -4.87250727E-16
  -1.47299999E-02  -5.96703901E-16
  -1.47150001E-02  -7.15243567E-16
  -1.47000002E-02  -8.39893254E-16
  -1.46850003E-02  -9.66723997E-16
  -1.46700004E-02  -1.09085519E-15
  -1.46549996E-02  -1.20649626E-15
  -1.46399997E-02  -1.30703102E-15
  -1.46249998E-02  -1.38514536E-15
  -1.46100000E-02  -1.43299933E-15
  -1.45950001E-02  -1.44243919E-15
  -1.45800002E-02  -1.40524661E-15
  -1.45650003E-02  -1.31341765E-15
  -1.45500004E-02  -1.15946677E-15
  -1.45349996E-02  -9.36743265E-16
  -1.45199997E-02  -6.39753609E-16
  -1.45049999E-02  -2.64475900E-16
  -1.44900000E-02   1.91343141E-16
  -1.44750001E-02   7.27921215E-16
  -1.44600002E-02   1.34321479E-15
  -1.44450003E-02   2.03274567E-15
  -1.44300004E-02   2.78948871E-15
  -1.44149996E-02   3.60383127E-15
  -1.43999998E-02   4.46360740E-15
  -1.43849999E-02   5.35421511E-15
  -1.43700000E-02   6.25881496E-15
  -1.43550001E-02   7.15861340E-15
  -1.43400002E-02   8.03322236E-15
  -1.43250003E-02   8.86109881E-15
  -1.43100005E-02   9.62004287E-15
  -1.42949997E-02   1.02877513E-14
  -1.42799998E-02   1.08424198E-14
  -1.42649999E-02   1.12633545E-14
  -1.42500000E-02   1.15316090E-14
  -1.42350001E-02   1.16306026E-14
  -1.42200002E-02   1.15467125E-14
  -1.42050004E-02   1.12698216E-14
  -1.41899996E-02   1.07937951E-14
  -1.41749997E-02   1.01168811E-14
  -1.41599998E-02   9.24201122E-15
  -1.41449999E-02   8.17698841E-15
  -1.41300000E-02   6.93455540E-15
  -1.41150001E-02   5.53232963E-15
  -1.41000003E-02   3.99261050E-15
  -1.40850004E-02   2.34204419E-15
  -1.40699996E-02   6.11165929E-16
  -1.40549997E-02  -1.16618808E-15
  -1.40399998E-02  -2.95357848E-15
  -1.40249999E-02  -4.71275833E-15
  -1.40100000E-02  -6.40455122E-15
  -1.39950002E-02  -7.98978142E-15
  -1.39800003E-02  -9.43025074E-15
  -1.39650004E-02  -1.06897159E-14
  -1.39499996E-02  -1.17348520E-14
  -1.39349997E-02  -1.25361774E-14
  -1.39199998E-02  -1.30689044E-14
  -1.39049999E-02  -1.33136961E-14
  -1.38900001E-02  -1.32573074E-14
  -1.38750002E-02  -1.28930866E-14
  -1.38600003E-02  -1.22213149E-14
  -1.38450004E-02  -1.12493844E-14
  -1.38299996E-02  -9.99178699E-15
  -1.38149997E-02  -8.46993052E-15
  -1.37999998E-02  -6.71175482E-15
  -1.37850000E-02  -4.75118780E-15
  -1.37700001E-02  -2.62741976E-15
  -1.37550002E-02  -3.84031000E-16
  -1.37400003E-02   1.93201185E-15
  -1.37250004E-02   4.27146942E-15
  -1.37099996E-02   6.58402013E-15
  -1.36949997E-02   8.81950356E-15
  -1.36799999E-02   1.09291755E-14
  -1.36650000E-02   1.28669531E-14
  -1.36500001E-02   1.45905931E-14
  -1.36350002E-02   1.60628092E-14
  -1.36200003E-02   1.72522434E-14
  -1.36050005E-02   1.81343198E-14
  -1.35899996E-02   1.86919046E-14
  -1.35749998E-02   1.89157958E-14
  -1.35599999E-02   1.88049852E-14
  -1.35450000E-02   1.83667118E-14
  -1.35300001E-02   1.76162880E-14
  -1.35150002E-02   1.65767143E-14
  -1.35000004E-02   1.52780671E-14
  -1.34849995E-02   1.37567036E-14
  -1.34699997E-02   1.20542648E-14
  -1.34549998E-02   1.02165497E-14
  -1.34399999E-02   8.29224672E-15
  -1.34250000E-02   6.33159203E-15
  -1.34100001E-02   4.38496336E-15
  -1.33950002E-02   2.50146575E-15
  -1.33800004E-02   7.27546933E-16
  -1.33649996E-02  -8.94323855E-16
  -1.33499997E-02  -2.32686896E-15
  -1.33349998E-02  -3.53907497E-15
  -1.33199999E-02  -4.50709069E-15
  -1.33050000E-02  -5.21492012E-15
  -1.32900001E-02  -5.65489614E-15
  -1.32750003E-02  -5.82791194E-15
  -1.32600004E-02  -5.74340134E-15
  -1.32449996E-02  -5.41906904E-15
  -1.32299997E-02  -4.88037514E-15
  -1.32149998E-02  -4.15978685E-15
  -1.31999999E-02  -3.29581367E-15
  -1.31850000E-02  -2.33185968E-15
  -1.31700002E-02  -1.31491425E-15
  -1.31550003E-02  -2.94130391E-16
  -1.31400004E-02   6.80671335E-16
  -1.31249996E-02   1.56053697E-15
  -1.31099997E-02   2.29889866E-15
  -1.30949998E-02   2.85303016E-15
  -1.30799999E-02   3.18539932E-15
  -1.30650001E-02   3.26488087E-15
  -1.30500002E-02   3.06777419E-15
  -1.30350003E-02   2.57860631E-15
  -1.30200004E-02   1.79069245E-15
  -1.30049996E-02   7.06426854E-16
  -1.29899997E-02  -6.62704867E-16
  -1.29749998E-02  -2.29639251E-15
  -1.29600000E-02  -4.16604431E-15
  -1.29450001E-02  -6.23559355E-15
  -1.29300002E-02  -8.46255202E-15
  -1.29150003E-02  -1.07992584E-14
  -1.29000004E-02  -1.31943178E-14
  -1.28849996E-02  -1.55941595E-14
  -1.28699997E-02  -1.79446725E-14
  -1.28549999E-02  -2.01928809E-14
  -1.28400000E-02  -2.22885827E-14
  -1.28250001E-02  -2.41859179E-14
  -1.28100002E-02  -2.58447811E-14
  -1.27950003E-02  -2.72320771E-14
  -1.27800005E-02  -2.83227201E-14
  -1.27649996E-02  -2.91003759E-14
  -1.27499998E-02  -2.95578923E-14
  -1.27349999E-02  -2.96974190E-14
  -1.27200000E-02  -2.95301571E-14
  -1.27050001E-02  -2.90757917E-14
  -1.26900002E-02  -2.83615955E-14
  -1.26750004E-02  -2.74211856E-14
  -1.26599995E-02  -2.62930309E-14
  -1.26449997E-02  -2.50187037E-14
  -1.26299998E-02  -2.36409420E-14
  -1.26149999E-02  -2.22015772E-14
  -1.26000000E-02  -2.07393984E-14
  -1.25850001E-02  -1.92880261E-14
  -1.25700003E-02  -1.78738622E-14
  -1.25550004E-02  -1.65142067E-14
  -1.25399996E-02  -1.52155832E-14
  -1.25249997E-02  -1.39723904E-14
  -1.25099998E-02  -1.27658953E-14
  -1.24949999E-02  -1.15636599E-14
  -1.24800000E-02  -1.03194507E-14
  -1.24650002E-02  -8.97360850E-15
  -1.24500003E-02  -7.45397803E-15
  -1.24350004E-02  -5.67735607E-15
  -1.24199996E-02  -3.55143212E-15
  -1.24049997E-02  -9.77257381E-16
  -1.23899998E-02   2.14786189E-15
  -1.23749999E-02   5.92708552E-15
  -1.23600001E-02   1.04604486E-14
  -1.23450002E-02   1.58410137E-14
  -1.23300003E-02   2.21509331E-14
  -1.23150004E-02   2.94574715E-14
  -1.22999996E-02   3.78091350E-14
  -1.22849997E-02   4.72320106E-14
  -1.22699998E-02   5.77264270E-14
  -1.22550000E-02   6.92640661E-14
  -1.22400001E-02   8.17856864E-14
  -1.22250002E-02   9.51994492E-14
  -1.22100003E-02   1.09380028E-13
  -1.21950004E-02   1.24168593E-13
  -1.21799996E-02   1.39373620E-13
  -1.21649997E-02   1.54772598E-13
  -1.21499998E-02   1.70114831E-13
  -1.21350000E-02   1.85124960E-13
  -1.21200001E-02   1.99507525E-13
  -1.21050002E-02   2.12952282E-13
  -1.20900003E-02   2.25140287E-13
  -1.20750004E-02   2.35750709E-13
  -1.20599996E-02   2.44467885E-13
  -1.20449997E-02   2.50989090E-13
  -1.20299999E-02   2.55032188E-13
  -1.20150000E-02   2.56343530E-13
  -1.20000001E-02   2.54705328E-13
  -1.19850002E-02   2.49943105E-13
  -1.19700003E-02   2.41932369E-13
  -1.19550005E-02   2.30604354E-13
  -1.19399996E-02   2.15951036E-13
  -1.19249998E-02   1.98029066E-13
  -1.19099999E-02   1.76962286E-13
  -1.18950000E-02   1.52943061E-13
  -1.18800001E-02   1.26231951E-13
  -1.18650002E-02   9.71560614E-14
  -1.18500004E-02   6.61056835E-14
  -1.18349995E-02   3.35293825E-14
  -1.18199997E-02  -7.23623225E-17
  -1.18049998E-02  -3.41549502E-14
  -1.17899999E-02  -6.81388268E-14
  -1.17750000E-02  -1.01419842E-13
  -1.17600001E-02  -1.33380543E-13
  -1.17450003E-02  -1.63402142E-13
  -1.17300004E-02  -1.90877262E-13
  -1.17149996E-02  -2.15222737E-13
  -1.16999997E-02  -2.35892550E-13
  -1.16849998E-02  -2.52390421E-13
  -1.16699999E-02  -2.64281652E-13
  -1.16550000E-02  -2.71204581E-13
  -1.16400002E-02  -2.72880378E-13
  -1.16250003E-02  -2.69121693E-13
  -1.16100004E-02  -2.59839730E-13
  -1.15949996E-02  -2.45049315E-13
  -1.15799997E-02  -2.24872055E-13
  -1.15649998E-02  -1.99537408E-13
  -1.15499999E-02  -1.69381422E-13
  -1.15350001E-02  -1.34843200E-13
  -1.15200002E-02  -9.64592514E-14
  -1.15050003E-02  -5.48554901E-14
  -1.14900004E-02  -1.07372649E-14
  -1.14749996E-02   3.51226040E-14
  -1.14599997E-02   8.18974879E-14
  -1.14449998E-02   1.28722066E-13
  -1.14300000E-02   1.74708609E-13
  -1.14150001E-02   2.18964237E-13
  -1.14000002E-02   2.60608429E-13
  -1.13850003E-02   2.98791021E-13
  -1.13700004E-02   3.32709609E-13
  -1.13549996E-02   3.61626609E-13
  -1.13399997E-02   3.84885293E-13
  -1.13249999E-02   4.01924343E-13
  -1.13100000E-02   4.12290699E-13
  -1.12950001E-02   4.15650614E-13
  -1.12800002E-02   4.11798417E-13
  -1.12650003E-02   4.00662522E-13
  -1.12500004E-02   3.82309066E-13
  -1.12349996E-02   3.56942557E-13
  -1.12199998E-02   3.24903895E-13
  -1.12049999E-02   2.86665385E-13
  -1.11900000E-02   2.42823041E-13
  -1.11750001E-02   1.94086256E-13
  -1.11600002E-02   1.41265065E-13
  -1.11450003E-02   8.52550791E-14
  -1.11300005E-02   2.70206034E-14
  -1.11149997E-02  -3.24238486E-14
  -1.10999998E-02  -9.20332942E-14
  -1.10849999E-02  -1.50752715E-13
  -1.10700000E-02  -2.07537844E-13
  -1.10550001E-02  -2.61375963E-13
  -1.10400002E-02  -3.11306102E-13
  -1.10250004E-02  -3.56438132E-13
  -1.10099996E-02  -3.95970800E-13
  -1.09949997E-02  -4.29207559E-13
  -1.09799998E-02  -4.55570640E-13
  -1.09649999E-02  -4.74612266E-13
  -1.09500000E-02  -4.86023656E-13
  -1.09350001E-02  -4.89640555E-13
  -1.09200003E-02  -4.85446156E-13
  -1.09050004E-02  -4.73570835E-13
  -1.08899996E-02  -4.54288381E-13
  -1.08749997E-02  -4.28009733E-13
  -1.08599998E-02  -3.95273468E-13
  -1.08449999E-02  -3.56733794E-13
  -1.08300000E-02  -3.13145858E-13
  -1.08150002E-02  -2.65349266E-13
  -1.08000003E-02  -2.14249666E-13
  -1.07850004E-02  -1.60799000E-13
  -1.07699996E-02  -1.05974989E-13
  -1.07549997E-02  -5.07601841E-14
  -1.07399998E-02   3.87896197E-15
  -1.07249999E-02   5.70124595E-14
  -1.07100001E-02   1.07766179E-13
  -1.06950002E-02   1.55339866E-13
  -1.06800003E-02   1.99023185E-13
  -1.06650004E-02   2.38209599E-13
  -1.06499996E-02   2.72407883E-13
  -1.06349997E-02   3.01250778E-13
  -1.06199998E-02   3.24500816E-13
  -1.06050000E-02   3.42052883E-13
  -1.05900001E-02   3.53933869E-13
  -1.05750002E-02   3.60299030E-13
  -1.05600003E-02   3.61425787E-13
  -1.05450004E-02   3.57704562E-13
  -1.05299996E-02   3.49626740E-13
  -1.05149997E-02   3.37770746E-13
  -1.04999999E-02   3.22786231E-13
  -1.04850000E-02   3.05376574E-13
  -1.04700001E-02   2.86280385E-13
  -1.04550002E-02   2.66252515E-13
  -1.04400003E-02   2.46044829E-13
  -1.04250005E-02   2.26387255E-13
  -1.04099996E-02   2.07969790E-13
  -1.03949998E-02   1.91425638E-13
  -1.03799999E-02   1.77316048E-13
  -1.03650000E-02   1.66117134E-13
  -1.03500001E-02   1.58209098E-13
  -1.03350002E-02   1.53867980E-13
  -1.03200004E-02   1.53260271E-13
  -1.03049995E-02   1.56440358E-13
  -1.02899997E-02   1.63350995E-13
  -1.02749998E-02   1.73826611E-13
  -1.02599999E-02   1.87599515E-13
  -1.02450000E-02   2.04308792E-13
  -1.02300001E-02   2.23511517E-13
  -1.02150002E-02   2.44696055E-13
  -1.02000004E-02   2.67297279E-13
  -1.01849996E-02   2.90712956E-13
  -1.01699997E-02   3.14321350E-13
  -1.01549998E-02   3.37498692E-13
  -1.01399999E-02   3.59637342E-13
  -1.01250000E-02   3.80162969E-13
  -1.01100001E-02   3.98551011E-13
  -1.00950003E-02   4.14341711E-13
  -1.00800004E-02   4.27153267E-13
  -1.00649996E-02   4.36693054E-13
  -1.00499997E-02   4.42766104E-13
  -1.00349998E-02   4.45281155E-13
  -1.00199999E-02   4.44253873E-13
  -1.00050000E-02   4.39806964E-13
  -9.99000017E-03   4.32167350E-13
  -9.97500028E-03   4.21660509E-13
  -9.96000040E-03   4.08702288E-13
  -9.94499959E-03   3.93787487E-13
  -9.92999971E-03   3.77476804E-13
  -9.91499983E-03   3.60381755E-13
  -9.89999995E-03   3.43147711E-13
  -9.88500006E-03   3.26436090E-13
  -9.87000018E-03   3.10905978E-13
  -9.85500030E-03   2.97195184E-13
  -9.84000042E-03   2.85902216E-13
  -9.82499961E-03   2.77568604E-13
  -9.80999973E-03   2.72662698E-13
  -9.79499985E-03   2.71565295E-13
  -9.77999996E-03   2.74557368E-13
  -9.76500008E-03   2.81810165E-13
  -9.75000020E-03   2.93378332E-13
  -9.73500032E-03   3.09195811E-13
  -9.72000044E-03   3.29074983E-13
  -9.70499963E-03   3.52708937E-13
  -9.68999974E-03   3.79677355E-13
  -9.67499986E-03   4.09454561E-13
  -9.65999998E-03   4.41421422E-13
  -9.64500010E-03   4.74879196E-13
  -9.63000022E-03   5.09066368E-13
  -9.61500034E-03   5.43176723E-13
  -9.60000046E-03   5.76379005E-13
  -9.58499964E-03   6.07837782E-13
  -9.56999976E-03   6.36734589E-13
  -9.55499988E-03   6.62289397E-13
  -9.54000000E-03   6.83780344E-13
  -9.52500012E-03   7.00563902E-13
  -9.51000024E-03   7.12091898E-13
  -9.49500035E-03   7.17927128E-13
  -9.47999954E-03   7.17756366E-13
  -9.46499966E-03   7.11400340E-13
  -9.44999978E-03   6.98820667E-13
  -9.43499990E-03   6.80123167E-13
  -9.42000002E-03   6.55557748E-13
  -9.40500014E-03   6.25514885E-13
  -9.39000025E-03   5.90517923E-13
  -9.37500037E-03   5.51213318E-13
  -9.35999956E-03   5.08356269E-13
  -9.34499968E-03   4.62794462E-13
  -9.32999980E-03   4.15449034E-13
  -9.31499992E-03   3.67293625E-13
  -9.30000003E-03   3.19332017E-13
  -9.28500015E-03   2.72574796E-13
  -9.27000027E-03   2.28015523E-13
  -9.25500039E-03   1.86607281E-13
  -9.23999958E-03   1.49239900E-13
  -9.22499970E-03   1.16718728E-13
  -9.20999981E-03   8.97452143E-14
  -9.19499993E-03   6.88999029E-14
  -9.18000005E-03   5.46281905E-14
  -9.16500017E-03   4.72296559E-14
  -9.15000029E-03   4.68504901E-14
  -9.13500041E-03   5.34796918E-14
  -9.11999959E-03   6.69494232E-14
  -9.10499971E-03   8.69388044E-14
  -9.08999983E-03   1.12981395E-13
  -9.07499995E-03   1.44476797E-13
  -9.06000007E-03   1.80705033E-13
  -9.04500019E-03   2.20843770E-13
  -9.03000031E-03   2.63988538E-13
  -9.01500043E-03   3.09174751E-13
  -8.99999961E-03   3.55400930E-13
  -8.98499973E-03   4.01653157E-13
  -8.96999985E-03   4.46929332E-13
  -8.95499997E-03   4.90263862E-13
  -8.94000009E-03   5.30750465E-13
  -8.92500021E-03   5.67563954E-13
  -8.91000032E-03   5.99979376E-13
  -8.89500044E-03   6.27389362E-13
  -8.87999963E-03   6.49317622E-13
  -8.86499975E-03   6.65429192E-13
  -8.84999987E-03   6.75537209E-13
  -8.83499999E-03   6.79606003E-13
  -8.82000010E-03   6.77749577E-13
  -8.80500022E-03   6.70227003E-13
  -8.79000034E-03   6.57433363E-13
  -8.77500046E-03   6.39887557E-13
  -8.75999965E-03   6.18216687E-13
  -8.74499977E-03   5.93138060E-13
  -8.72999988E-03   5.65438646E-13
  -8.71500000E-03   5.35952359E-13
  -8.70000012E-03   5.05536856E-13
  -8.68500024E-03   4.75049687E-13
  -8.67000036E-03   4.45324170E-13
  -8.65499955E-03   4.17146976E-13
  -8.63999967E-03   3.91236495E-13
  -8.62499978E-03   3.68222840E-13
  -8.60999990E-03   3.48631416E-13
  -8.59500002E-03   3.32869149E-13
  -8.58000014E-03   3.21213759E-13
  -8.56500026E-03   3.13807492E-13
  -8.55000038E-03   3.10654605E-13
  -8.53499956E-03   3.11622771E-13
  -8.51999968E-03   3.16448690E-13
  -8.50499980E-03   3.24747851E-13
  -8.48999992E-03   3.36027647E-13
  -8.47500004E-03   3.49704288E-13
  -8.46000016E-03   3.65122185E-13
  -8.44500028E-03   3.81576227E-13
  -8.43000039E-03   3.98335607E-13
  -8.41499958E-03   4.14668923E-13
  -8.39999970E-03   4.29869438E-13
  -8.38499982E-03   4.43280287E-13
  -8.36999994E-03   4.54319199E-13
  -8.35500006E-03   4.62500426E-13
  -8.34000017E-03   4.67454688E-13
  -8.32500029E-03   4.68946117E-13
  -8.31000041E-03   4.66885482E-13
  -8.29499960E-03   4.61339788E-13
  -8.27999972E-03   4.52536527E-13
  -8.26499984E-03   4.40863600E-13
  -8.24999996E-03   4.26864680E-13
  -8.23500007E-03   4.11228180E-13
  -8.22000019E-03   3.94773596E-13
  -8.20500031E-03   3.78431553E-13
  -8.19000043E-03   3.63220711E-13
  -8.17499962E-03   3.50220666E-13
  -8.15999974E-03   3.40540828E-13
  -8.14499985E-03   3.35288654E-13
  -8.12999997E-03   3.35535419E-13
  -8.11500009E-03   3.42281298E-13
  -8.10000021E-03   3.56420731E-13
  -8.08500033E-03   3.78708593E-13
  -8.07000045E-03   4.09729271E-13
  -8.05499963E-03   4.49867655E-13
  -8.03999975E-03   4.99284641E-13
  -8.02499987E-03   5.57896773E-13
  -8.00999999E-03   6.25361633E-13
  -7.99500011E-03   7.01068272E-13
  -7.98000023E-03   7.84134639E-13
  -7.96500035E-03   8.73411315E-13
  -7.95000046E-03   9.67491929E-13
  -7.93499965E-03   1.06473044E-12
  -7.91999977E-03   1.16326599E-12
  -7.90499989E-03   1.26105116E-12
  -7.89000001E-03   1.35588827E-12
  -7.87500013E-03   1.44547156E-12
  -7.86000025E-03   1.52743118E-12
  -7.84500036E-03   1.59938198E-12
  -7.82999955E-03   1.65897547E-12
  -7.81499967E-03   1.70395208E-12
  -7.79999979E-03   1.73219251E-12
  -7.78499991E-03   1.74177112E-12
  -7.77000003E-03   1.73100455E-12
  -7.75500014E-03   1.69849822E-12
  -7.73999980E-03   1.64318765E-12
  -7.72499992E-03   1.56437461E-12
  -7.71000003E-03   1.46175585E-12
  -7.69500015E-03   1.33544651E-12
  -7.67999981E-03   1.18599358E-12
  -7.66499992E-03   1.01438226E-12
  -7.65000004E-03   8.22032709E-13
  -7.63500016E-03   6.10786703E-13
  -7.61999981E-03   3.82887678E-13
  -7.60499993E-03   1.40950253E-13
  -7.59000005E-03  -1.12078207E-13
  -7.57500017E-03  -3.72963054E-13
  -7.55999982E-03  -6.38235938E-13
  -7.54499994E-03  -9.04253343E-13
  -7.53000006E-03  -1.16726095E-12
  -7.51500018E-03  -1.42346052E-12
  -7.49999983E-03  -1.66907905E-12
  -7.48499995E-03  -1.90044053E-12
  -7.47000007E-03  -2.11403573E-12
  -7.45500019E-03  -2.30659112E-12
  -7.43999984E-03  -2.47513186E-12
  -7.42499996E-03  -2.61704482E-12
  -7.41000008E-03  -2.73013057E-12
  -7.39500020E-03  -2.81265245E-12
  -7.37999985E-03  -2.86337490E-12
  -7.36499997E-03  -2.88159318E-12
  -7.35000009E-03  -2.86715465E-12
  -7.33500021E-03  -2.82046847E-12
  -7.31999986E-03  -2.74250544E-12
  -7.30499998E-03  -2.63478714E-12
  -7.29000010E-03  -2.49936530E-12
  -7.27500021E-03  -2.33879019E-12
  -7.25999987E-03  -2.15607003E-12
  -7.24499999E-03  -1.95462114E-12
  -7.23000010E-03  -1.73821135E-12
  -7.21500022E-03  -1.51089482E-12
  -7.19999988E-03  -1.27694394E-12
  -7.18499999E-03  -1.04077641E-12
  -7.17000011E-03  -8.06876918E-13
  -7.15500023E-03  -5.79720245E-13
  -7.13999989E-03  -3.63695104E-13
  -7.12500000E-03  -1.63027347E-13
  -7.11000012E-03   1.82927200E-14
  -7.09499978E-03   1.76576093E-13
  -7.07999989E-03   3.08497368E-13
  -7.06500001E-03   4.11152124E-13
  -7.05000013E-03   4.82101826E-13
  -7.03499978E-03   5.19412421E-13
  -7.01999990E-03   5.21682957E-13
  -7.00500002E-03   4.88064450E-13
  -6.99000014E-03   4.18267011E-13
  -6.97499979E-03   3.12560091E-13
  -6.95999991E-03   1.71759457E-13
  -6.94500003E-03  -2.79558544E-15
  -6.93000015E-03  -2.09270548E-13
  -6.91499980E-03  -4.45375562E-13
  -6.89999992E-03  -7.08413471E-13
  -6.88500004E-03  -9.95333048E-13
  -6.87000016E-03  -1.30278655E-12
  -6.85499981E-03  -1.62719545E-12
  -6.83999993E-03  -1.96481416E-12
  -6.82500005E-03  -2.31179789E-12
  -6.81000017E-03  -2.66427375E-12
  -6.79499982E-03  -3.01840389E-12
  -6.77999994E-03  -3.37045322E-12
  -6.76500006E-03  -3.71685018E-12
  -6.75000018E-03  -4.05424349E-12
  -6.73499983E-03  -4.37955358E-12
  -6.71999995E-03  -4.69002094E-12
  -6.70500007E-03  -4.98323995E-12
  -6.69000018E-03  -5.25719312E-12
  -6.67499984E-03  -5.51027323E-12
  -6.65999996E-03  -5.74129806E-12
  -6.64500007E-03  -5.94951735E-12
  -6.63000019E-03  -6.13461235E-12
  -6.61499985E-03  -6.29668973E-12
  -6.59999996E-03  -6.43626255E-12
  -6.58500008E-03  -6.55422895E-12
  -6.57000020E-03  -6.65184401E-12
  -6.55499985E-03  -6.73068459E-12
  -6.53999997E-03  -6.79261465E-12
  -6.52500009E-03  -6.83974405E-12
  -6.51000021E-03  -6.87438257E-12
  -6.49499986E-03  -6.89899396E-12
  -6.47999998E-03  -6.91615255E-12
  -6.46500010E-03  -6.92849424E-12
  -6.45000022E-03  -6.93867229E-12
  -6.43499987E-03  -6.94931526E-12
  -6.41999999E-03  -6.96298704E-12
  -6.40500011E-03  -6.98215227E-12
  -6.39000023E-03  -7.00913763E-12
  -6.37499988E-03  -7.04610415E-12
  -6.36000000E-03  -7.09502335E-12
  -6.34500012E-03  -7.15765728E-12
  -6.32999977E-03  -7.23554246E-12
  -6.31499989E-03  -7.32997777E-12
  -6.30000001E-03  -7.44201662E-12
  -6.28500013E-03  -7.57247303E-12
  -6.26999978E-03  -7.72191599E-12
  -6.25499990E-03  -7.89067856E-12
  -6.24000002E-03  -8.07886744E-12
  -6.22500014E-03  -8.28637246E-12
  -6.20999979E-03  -8.51288831E-12
  -6.19499991E-03  -8.75792928E-12
  -6.18000003E-03  -9.02084050E-12
  -6.16500014E-03  -9.30082573E-12
  -6.14999980E-03  -9.59696905E-12
  -6.13499992E-03  -9.90824957E-12
  -6.12000003E-03  -1.02335683E-11
  -6.10500015E-03  -1.05717596E-11
  -6.08999981E-03  -1.09216221E-11
  -6.07499992E-03  -1.12819372E-11
  -6.06000004E-03  -1.16514767E-11
  -6.04500016E-03  -1.20290262E-11
  -6.02999981E-03  -1.24134019E-11
  -6.01499993E-03  -1.28034658E-11
  -6.00000005E-03  -1.31981344E-11
  -5.98500017E-03  -1.35963948E-11
  -5.96999982E-03  -1.39973120E-11
  -5.95499994E-03  -1.44000471E-11
  -5.94000006E-03  -1.48038595E-11
  -5.92500018E-03  -1.52081143E-11
  -5.90999983E-03  -1.56122875E-11
  -5.89499995E-03  -1.60159802E-11
  -5.88000007E-03  -1.64189200E-11
  -5.86500019E-03  -1.68209630E-11
  -5.84999984E-03  -1.72221040E-11
  -5.83499996E-03  -1.76224660E-11
  -5.82000008E-03  -1.80223128E-11
  -5.80500020E-03  -1.84220538E-11
  -5.78999985E-03  -1.88222285E-11
  -5.77499997E-03  -1.92235186E-11
  -5.76000009E-03  -1.96267343E-11
  -5.74500021E-03  -2.00328157E-11
  -5.72999986E-03  -2.04428210E-11
  -5.71499998E-03  -2.08579178E-11
  -5.70000010E-03  -2.12793776E-11
  -5.68500021E-03  -2.17085638E-11
  -5.66999987E-03  -2.21469006E-11
  -5.65499999E-03  -2.25958731E-11
  -5.64000010E-03  -2.30570060E-11
  -5.62500022E-03  -2.35318310E-11
  -5.60999988E-03  -2.40218748E-11
  -5.59500000E-03  -2.45286309E-11
  -5.58000011E-03  -2.50535408E-11
  -5.56500023E-03  -2.55979734E-11
  -5.54999989E-03  -2.61631810E-11
  -5.53500000E-03  -2.67502895E-11
  -5.52000012E-03  -2.73602703E-11
  -5.50499978E-03  -2.79939232E-11
  -5.48999989E-03  -2.86518483E-11
  -5.47500001E-03  -2.93344307E-11
  -5.46000013E-03  -3.00418232E-11
  -5.44499978E-03  -3.07739563E-11
  -5.42999990E-03  -3.15304970E-11
  -5.41500002E-03  -3.23108727E-11
  -5.40000014E-03  -3.31142717E-11
  -5.38499979E-03  -3.39396289E-11
  -5.36999991E-03  -3.47856674E-11
  -5.35500003E-03  -3.56508850E-11
  -5.34000015E-03  -3.65336129E-11
  -5.32499980E-03  -3.74320158E-11
  -5.30999992E-03  -3.83441369E-11
  -5.29500004E-03  -3.92679257E-11
  -5.28000016E-03  -4.02012937E-11
  -5.26499981E-03  -4.11421383E-11
  -5.24999993E-03  -4.20883953E-11
  -5.23500005E-03  -4.30380870E-11
  -5.22000017E-03  -4.39893608E-11
  -5.20499982E-03  -4.49405305E-11
  -5.18999994E-03  -4.58901424E-11
  -5.17500006E-03  -4.68370030E-11
  -5.16000018E-03  -4.77802069E-11
  -5.14499983E-03  -4.87191815E-11
  -5.12999995E-03  -4.96537186E-11
  -5.11500007E-03  -5.05839780E-11
  -5.10000018E-03  -5.15105111E-11
  -5.08499984E-03  -5.24342791E-11
  -5.06999996E-03  -5.33566420E-11
  -5.05500007E-03  -5.42793414E-11
  -5.04000019E-03  -5.52045076E-11
  -5.02499985E-03  -5.61346108E-11
  -5.00999996E-03  -5.70724475E-11
  -4.99500008E-03  -5.80211018E-11
  -4.98000020E-03  -5.89838942E-11
  -4.96499985E-03  -5.99643321E-11
  -4.94999997E-03  -6.09660655E-11
  -4.93500009E-03  -6.19928067E-11
  -4.92000021E-03  -6.30483027E-11
  -4.90499986E-03  -6.41362380E-11
  -4.88999998E-03  -6.52602000E-11
  -4.87500010E-03  -6.64236235E-11
  -4.86000022E-03  -6.76297143E-11
  -4.84499987E-03  -6.88813798E-11
  -4.82999999E-03  -7.01812428E-11
  -4.81500011E-03  -7.15315376E-11
  -4.80000023E-03  -7.29341101E-11
  -4.78499988E-03  -7.43903550E-11
  -4.77000000E-03  -7.59012367E-11
  -4.75500012E-03  -7.74672965E-11
  -4.73999977E-03  -7.90885760E-11
  -4.72499989E-03  -8.07647074E-11
  -4.71000001E-03  -8.24948859E-11
  -4.69500013E-03  -8.42779041E-11
  -4.67999978E-03  -8.61122146E-11
  -4.66499990E-03  -8.79959369E-11
  -4.65000002E-03  -8.99269062E-11
  -4.63500014E-03  -9.19027701E-11
  -4.61999979E-03  -9.39210168E-11
  -4.60499991E-03  -9.59790025E-11
  -4.59000003E-03  -9.80740836E-11
  -4.57500014E-03  -1.00203623E-10
  -4.55999980E-03  -1.02365075E-10
  -4.54499992E-03  -1.04556044E-10
  -4.53000003E-03  -1.06774346E-10
  -4.51500015E-03  -1.09018024E-10
  -4.49999981E-03  -1.11285384E-10
  -4.48499992E-03  -1.13575080E-10
  -4.47000004E-03  -1.15886099E-10
  -4.45500016E-03  -1.18217769E-10
  -4.43999982E-03  -1.20569763E-10
  -4.42499993E-03  -1.22942101E-10
  -4.41000005E-03  -1.25335173E-10
  -4.39500017E-03  -1.27749644E-10
  -4.37999982E-03  -1.30186514E-10
  -4.36499994E-03  -1.32646977E-10
  -4.35000006E-03  -1.35132489E-10
  -4.33500018E-03  -1.37644604E-10
  -4.31999983E-03  -1.40185002E-10
  -4.30499995E-03  -1.42755419E-10
  -4.29000007E-03  -1.45357559E-10
  -4.27500019E-03  -1.47993132E-10
  -4.25999984E-03  -1.50663690E-10
  -4.24499996E-03  -1.53370608E-10
  -4.23000008E-03  -1.56115093E-10
  -4.21500020E-03  -1.58898131E-10
  -4.19999985E-03  -1.61720456E-10
  -4.18499997E-03  -1.64582500E-10
  -4.17000009E-03  -1.67484485E-10
  -4.15500021E-03  -1.70426298E-10
  -4.13999986E-03  -1.73407594E-10
  -4.12499998E-03  -1.76427789E-10
  -4.11000010E-03  -1.79486107E-10
  -4.09500021E-03  -1.82581630E-10
  -4.07999987E-03  -1.85713361E-10
  -4.06499999E-03  -1.88880245E-10
  -4.05000011E-03  -1.92081226E-10
  -4.03500022E-03  -1.95315417E-10
  -4.01999988E-03  -1.98582067E-10
  -4.00500000E-03  -2.01880651E-10
  -3.99000011E-03  -2.05210987E-10
  -3.97500023E-03  -2.08573214E-10
  -3.95999989E-03  -2.11967957E-10
  -3.94500000E-03  -2.15396367E-10
  -3.93000012E-03  -2.18860083E-10
  -3.91499978E-03  -2.22361338E-10
  -3.89999989E-03  -2.25902935E-10
  -3.88500001E-03  -2.29488303E-10
  -3.86999990E-03  -2.33121439E-10
  -3.85500002E-03  -2.36806907E-10
  -3.83999990E-03  -2.40549775E-10
  -3.82500002E-03  -2.44355647E-10
  -3.80999991E-03  -2.48230408E-10
  -3.79500003E-03  -2.52180360E-10
  -3.77999991E-03  -2.56212052E-10
  -3.76500003E-03  -2.60332061E-10
  -3.74999992E-03  -2.64546968E-10
  -3.73500003E-03  -2.68863320E-10
  -3.71999992E-03  -2.73287337E-10
  -3.70500004E-03  -2.77824930E-10
  -3.68999992E-03  -2.82481538E-10
  -3.67500004E-03  -2.87261936E-10
  -3.65999993E-03  -2.92170288E-10
  -3.64500005E-03  -2.97209840E-10
  -3.62999993E-03  -3.02382924E-10
  -3.61500005E-03  -3.07691039E-10
  -3.59999994E-03  -3.13134574E-10
  -3.58500006E-03  -3.18712751E-10
  -3.56999994E-03  -3.24423821E-10
  -3.55500006E-03  -3.30264954E-10
  -3.53999995E-03  -3.36232153E-10
  -3.52500007E-03  -3.42320533E-10
  -3.50999995E-03  -3.48524293E-10
  -3.49500007E-03  -3.54836743E-10
  -3.47999996E-03  -3.61250446E-10
  -3.46500007E-03  -3.67757436E-10
  -3.44999996E-03  -3.74349246E-10
  -3.43500008E-03  -3.81017107E-10
  -3.41999996E-03  -3.87752247E-10
  -3.40500008E-03  -3.94545813E-10
  -3.38999997E-03  -4.01389227E-10
  -3.37500009E-03  -4.08274359E-10
  -3.35999997E-03  -4.15193657E-10
  -3.34500009E-03  -4.22140267E-10
  -3.32999998E-03  -4.29108277E-10
  -3.31500010E-03  -4.36092995E-10
  -3.29999998E-03  -4.43090731E-10
  -3.28500010E-03  -4.50099125E-10
  -3.26999999E-03  -4.57117205E-10
  -3.25500011E-03  -4.64145444E-10
  -3.23999999E-03  -4.71185702E-10
  -3.22500011E-03  -4.78241446E-10
  -3.21000000E-03  -4.85317453E-10
  -3.19500011E-03  -4.92419883E-10
  -3.18000000E-03  -4.99556285E-10
  -3.16499989E-03  -5.06735431E-10
  -3.15000000E-03  -5.13966980E-10
  -3.13499989E-03  -5.21261700E-10
  -3.12000001E-03  -5.28631139E-10
  -3.10499989E-03  -5.36087230E-10
  -3.09000001E-03  -5.43642298E-10
  -3.07499990E-03  -5.51308943E-10
  -3.06000002E-03  -5.59099600E-10
  -3.04499990E-03  -5.67026481E-10
  -3.03000002E-03  -5.75101355E-10
  -3.01499991E-03  -5.83335324E-10
  -3.00000003E-03  -5.91738603E-10
  -2.98499991E-03  -6.00320293E-10
  -2.97000003E-03  -6.09088613E-10
  -2.95499992E-03  -6.18050167E-10
  -2.94000003E-03  -6.27210450E-10
  -2.92499992E-03  -6.36573239E-10
  -2.91000004E-03  -6.46140919E-10
  -2.89499993E-03  -6.55914267E-10
  -2.88000004E-03  -6.65892619E-10
  -2.86499993E-03  -6.76073919E-10
  -2.85000005E-03  -6.86454615E-10
  -2.83499993E-03  -6.97029989E-10
  -2.82000005E-03  -7.07793935E-10
  -2.80499994E-03  -7.18739401E-10
  -2.79000006E-03  -7.29858673E-10
  -2.77499994E-03  -7.41143036E-10
  -2.76000006E-03  -7.52583496E-10
  -2.74499995E-03  -7.64170616E-10
  -2.73000007E-03  -7.75895070E-10
  -2.71499995E-03  -7.87747534E-10
  -2.70000007E-03  -7.99718902E-10
  -2.68499996E-03  -8.11800738E-10
  -2.67000007E-03  -8.23985102E-10
  -2.65499996E-03  -8.36265113E-10
  -2.64000008E-03  -8.48634718E-10
  -2.62499996E-03  -8.61088978E-10
  -2.61000008E-03  -8.73623951E-10
  -2.59499997E-03  -8.86237139E-10
  -2.58000009E-03  -8.98927099E-10
  -2.56499997E-03  -9.11693776E-10
  -2.55000009E-03  -9.24538335E-10
  -2.53499998E-03  -9.37463107E-10
  -2.52000010E-03  -9.50471812E-10
  -2.50499998E-03  -9.63568891E-10
  -2.49000010E-03  -9.76759673E-10
  -2.47499999E-03  -9.90050486E-10
  -2.46000011E-03  -1.00344844E-09
  -2.44499999E-03  -1.01696107E-09
  -2.43000011E-03  -1.03059583E-09
  -2.41500000E-03  -1.04436071E-09
  -2.40000011E-03  -1.05826348E-09
  -2.38500000E-03  -1.07231202E-09
  -2.36999989E-03  -1.08651366E-09
  -2.35500000E-03  -1.10087550E-09
  -2.33999989E-03  -1.11540377E-09
  -2.32500001E-03  -1.13010434E-09
  -2.30999989E-03  -1.14498200E-09
  -2.29500001E-03  -1.16004106E-09
  -2.27999990E-03  -1.17528465E-09
  -2.26500002E-03  -1.19071486E-09
  -2.24999990E-03  -1.20633337E-09
  -2.23500002E-03  -1.22214061E-09
  -2.21999991E-03  -1.23813648E-09
  -2.20500003E-03  -1.25431954E-09
  -2.18999991E-03  -1.27068789E-09
  -2.17500003E-03  -1.28723954E-09
  -2.15999992E-03  -1.30397138E-09