  -1.49999997E-02   0.00000000    
  -1.49849998E-02   0.00000000    
  -1.49699999E-02   0.00000000    
  -1.49550000E-02   0.00000000    
  -1.49400001E-02   0.00000000    
  -1.49250003E-02   0.00000000    
  -1.49100004E-02   0.00000000    
  -1.48949996E-02   0.00000000    
  -1.48799997E-02   0.00000000    
  -1.48649998E-02   0.00000000    
  -1.48499999E-02   0.00000000    
  -1.48350000E-02   0.00000000    
  -1.48200002E-02   0.00000000    
  -1.48050003E-02   0.00000000    
  -1.47900004E-02   0.00000000    
  -1.47749996E-02   0.00000000    
  -1.47599997E-02   0.00000000    
  -1.47449998E-02   0.00000000    
  -1.47299999E-02   0.00000000    
  -1.47150001E-02   0.00000000    
  -1.47000002E-02   0.00000000    
  -1.46850003E-02   0.00000000    
  -1.46700004E-02   0.00000000    
  -1.46549996E-02   0.00000000    
  -1.46399997E-02   0.00000000    
  -1.46249998E-02   0.00000000    
  -1.46100000E-02   0.00000000    
  -1.45950001E-02   0.00000000    
  -1.45800002E-02   0.00000000    
  -1.45650003E-02   0.00000000    
  -1.45500004E-02   0.00000000    
  -1.45349996E-02   0.00000000    
  -1.45199997E-02   0.00000000    
  -1.45049999E-02   0.00000000    
  -1.44900000E-02   0.00000000    
  -1.44750001E-02   0.00000000    
  -1.44600002E-02   0.00000000    
  -1.44450003E-02   0.00000000    
  -1.44300004E-02   0.00000000    
  -1.44149996E-02   0.00000000    
  -1.43999998E-02   0.00000000    
  -1.43849999E-02   0.00000000    
  -1.43700000E-02   0.00000000    
  -1.43550001E-02   0.00000000    
  -1.43400002E-02   0.00000000    
  -1.43250003E-02   0.00000000    
  -1.43100005E-02   0.00000000    
  -1.42949997E-02   0.00000000    
  -1.42799998E-02   0.00000000    
  -1.42649999E-02   0.00000000    
  -1.42500000E-02   0.00000000    
  -1.42350001E-02   0.00000000    
  -1.42200002E-02   0.00000000    
  -1.42050004E-02   0.00000000    
  -1.41899996E-02   0.00000000    
  -1.41749997E-02   0.00000000    
  -1.41599998E-02   0.00000000    
  -1.41449999E-02   0.00000000    
  -1.41300000E-02   0.00000000    
  -1.41150001E-02   0.00000000    
  -1.41000003E-02   0.00000000    
  -1.40850004E-02   0.00000000    
  -1.40699996E-02   0.00000000    
  -1.40549997E-02   0.00000000    
  -1.40399998E-02   0.00000000    
  -1.40249999E-02   0.00000000    
  -1.40100000E-02   0.00000000    
  -1.39950002E-02   0.00000000    
  -1.39800003E-02   0.00000000    
  -1.39650004E-02   0.00000000    
  -1.39499996E-02   0.00000000    
  -1.39349997E-02   0.00000000    
  -1.39199998E-02   0.00000000    
  -1.39049999E-02   0.00000000    
  -1.38900001E-02   0.00000000    
  -1.38750002E-02   0.00000000    
  -1.38600003E-02   0.00000000    
  -1.38450004E-02   0.00000000    
  -1.38299996E-02   0.00000000    
  -1.38149997E-02   0.00000000    
  -1.37999998E-02   0.00000000    
  -1.37850000E-02   0.00000000    
  -1.37700001E-02   0.00000000    
  -1.37550002E-02   0.00000000    
  -1.37400003E-02   0.00000000    
  -1.37250004E-02   0.00000000    
  -1.37099996E-02   0.00000000    
  -1.36949997E-02   0.00000000    
  -1.36799999E-02   0.00000000    
  -1.36650000E-02   0.00000000    
  -1.36500001E-02   0.00000000    
  -1.36350002E-02   0.00000000    
  -1.36200003E-02   0.00000000    
  -1.36050005E-02   0.00000000    
  -1.35899996E-02   0.00000000    
  -1.35749998E-02   0.00000000    
  -1.35599999E-02   0.00000000    
  -1.35450000E-02   0.00000000    
  -1.35300001E-02   0.00000000    
  -1.35150002E-02   0.00000000    
  -1.35000004E-02   0.00000000    
  -1.34849995E-02   0.00000000    
  -1.34699997E-02   0.00000000    
  -1.34549998E-02   0.00000000    
  -1.34399999E-02   0.00000000    
  -1.34250000E-02   0.00000000    
  -1.34100001E-02   0.00000000    
  -1.33950002E-02   0.00000000    
  -1.33800004E-02   0.00000000    
  -1.33649996E-02   0.00000000    
  -1.33499997E-02   0.00000000    
  -1.33349998E-02   0.00000000    
  -1.33199999E-02   0.00000000    
  -1.33050000E-02   0.00000000    
  -1.32900001E-02   0.00000000    
  -1.32750003E-02   0.00000000    
  -1.32600004E-02   0.00000000    
  -1.32449996E-02   0.00000000    
  -1.32299997E-02   0.00000000    
  -1.32149998E-02   0.00000000    
  -1.31999999E-02   0.00000000    
  -1.31850000E-02   0.00000000    
  -1.31700002E-02   0.00000000    
  -1.31550003E-02   0.00000000    
  -1.31400004E-02   0.00000000    
  -1.31249996E-02   0.00000000    
  -1.31099997E-02   0.00000000    
  -1.30949998E-02   0.00000000    
  -1.30799999E-02   0.00000000    
  -1.30650001E-02   0.00000000    
  -1.30500002E-02   0.00000000    
  -1.30350003E-02   0.00000000    
  -1.30200004E-02   0.00000000    
  -1.30049996E-02   0.00000000    
  -1.29899997E-02   0.00000000    
  -1.29749998E-02   0.00000000    
  -1.29600000E-02   0.00000000    
  -1.29450001E-02   0.00000000    
  -1.29300002E-02   0.00000000    
  -1.29150003E-02   0.00000000    
  -1.29000004E-02   0.00000000    
  -1.28849996E-02   0.00000000    
  -1.28699997E-02   0.00000000    
  -1.28549999E-02   0.00000000    
  -1.28400000E-02   0.00000000    
  -1.28250001E-02   0.00000000    
  -1.28100002E-02   0.00000000    
  -1.27950003E-02   0.00000000    
  -1.27800005E-02   0.00000000    
  -1.27649996E-02   0.00000000    
  -1.27499998E-02   0.00000000    
  -1.27349999E-02   0.00000000    
  -1.27200000E-02   0.00000000    
  -1.27050001E-02   0.00000000    
  -1.26900002E-02   0.00000000    
  -1.26750004E-02   0.00000000    
  -1.26599995E-02   0.00000000    
  -1.26449997E-02   0.00000000    
  -1.26299998E-02   0.00000000    
  -1.26149999E-02   0.00000000    
  -1.26000000E-02   0.00000000    
  -1.25850001E-02   0.00000000    
  -1.25700003E-02   0.00000000    
  -1.25550004E-02   0.00000000    
  -1.25399996E-02   0.00000000    
  -1.25249997E-02   0.00000000    
  -1.25099998E-02   0.00000000    
  -1.24949999E-02   0.00000000    
  -1.24800000E-02   0.00000000    
  -1.24650002E-02   0.00000000    
  -1.24500003E-02   0.00000000    
  -1.24350004E-02   0.00000000    
  -1.24199996E-02   0.00000000    
  -1.24049997E-02   0.00000000    
  -1.23899998E-02   0.00000000    
  -1.23749999E-02   0.00000000    
  -1.23600001E-02   0.00000000    
  -1.23450002E-02   0.00000000    
  -1.23300003E-02   0.00000000    
  -1.23150004E-02   0.00000000    
  -1.22999996E-02   0.00000000    
  -1.22849997E-02   0.00000000    
  -1.22699998E-02   0.00000000    
  -1.22550000E-02   0.00000000    
  -1.22400001E-02   0.00000000    
  -1.22250002E-02   0.00000000    
  -1.22100003E-02   0.00000000    
  -1.21950004E-02   0.00000000    
  -1.21799996E-02   0.00000000    
  -1.21649997E-02   0.00000000    
  -1.21499998E-02   0.00000000    
  -1.21350000E-02   0.00000000    
  -1.21200001E-02   0.00000000    
  -1.21050002E-02   0.00000000    
  -1.20900003E-02   0.00000000    
  -1.20750004E-02   0.00000000    
  -1.20599996E-02   0.00000000    
  -1.20449997E-02   0.00000000    
  -1.20299999E-02   0.00000000    
  -1.20150000E-02   0.00000000    
  -1.20000001E-02   0.00000000    
  -1.19850002E-02   0.00000000    
  -1.19700003E-02   0.00000000    
  -1.19550005E-02   0.00000000    
  -1.19399996E-02   0.00000000    
  -1.19249998E-02   0.00000000    
  -1.19099999E-02   0.00000000    
  -1.18950000E-02   0.00000000    
  -1.18800001E-02   0.00000000    
  -1.18650002E-02   0.00000000    
  -1.18500004E-02   0.00000000    
  -1.18349995E-02   0.00000000    
  -1.18199997E-02   0.00000000    
  -1.18049998E-02   0.00000000    
  -1.17899999E-02   0.00000000    
  -1.17750000E-02   0.00000000    
  -1.17600001E-02   0.00000000    
  -1.17450003E-02   0.00000000    
  -1.17300004E-02   0.00000000    
  -1.17149996E-02   0.00000000    
  -1.16999997E-02   0.00000000    
  -1.16849998E-02   0.00000000    
  -1.16699999E-02   0.00000000    
  -1.16550000E-02   0.00000000    
  -1.16400002E-02   0.00000000    
  -1.16250003E-02   0.00000000    
  -1.16100004E-02   0.00000000    
  -1.15949996E-02   0.00000000    
  -1.15799997E-02   0.00000000    
  -1.15649998E-02   0.00000000    
  -1.15499999E-02   0.00000000    
  -1.15350001E-02   0.00000000    
  -1.15200002E-02   0.00000000    
  -1.15050003E-02   0.00000000    
  -1.14900004E-02   0.00000000    
  -1.14749996E-02   0.00000000    
  -1.14599997E-02   0.00000000    
  -1.14449998E-02   0.00000000    
  -1.14300000E-02   0.00000000    
  -1.14150001E-02   0.00000000    
  -1.14000002E-02   0.00000000    
  -1.13850003E-02   0.00000000    
  -1.13700004E-02   0.00000000    
  -1.13549996E-02   0.00000000    
  -1.13399997E-02   0.00000000    
  -1.13249999E-02   0.00000000    
  -1.13100000E-02   0.00000000    
  -1.12950001E-02   0.00000000    
  -1.12800002E-02   0.00000000    
  -1.12650003E-02   0.00000000    
  -1.12500004E-02   0.00000000    
  -1.12349996E-02   0.00000000    
  -1.12199998E-02   0.00000000    
  -1.12049999E-02   0.00000000    
  -1.11900000E-02   0.00000000    
  -1.11750001E-02   0.00000000    
  -1.11600002E-02   0.00000000    
  -1.11450003E-02   0.00000000    
  -1.11300005E-02   0.00000000    
  -1.11149997E-02   0.00000000    
  -1.10999998E-02   0.00000000    
  -1.10849999E-02   0.00000000    
  -1.10700000E-02   0.00000000    
  -1.10550001E-02   0.00000000    
  -1.10400002E-02   0.00000000    
  -1.10250004E-02   0.00000000    
  -1.10099996E-02   0.00000000    
  -1.09949997E-02   0.00000000    
  -1.09799998E-02   0.00000000    
  -1.09649999E-02   0.00000000    
  -1.09500000E-02   0.00000000    
  -1.09350001E-02   0.00000000    
  -1.09200003E-02   0.00000000    
  -1.09050004E-02   0.00000000    
  -1.08899996E-02   0.00000000    
  -1.08749997E-02   0.00000000    
  -1.08599998E-02   0.00000000    
  -1.08449999E-02   0.00000000    
  -1.08300000E-02   0.00000000    
  -1.08150002E-02   0.00000000    
  -1.08000003E-02   0.00000000    
  -1.07850004E-02   0.00000000    
  -1.07699996E-02   0.00000000    
  -1.07549997E-02   0.00000000    
  -1.07399998E-02   0.00000000    
  -1.07249999E-02   0.00000000    
  -1.07100001E-02   0.00000000    
  -1.06950002E-02   0.00000000    
  -1.06800003E-02   0.00000000    
  -1.06650004E-02   0.00000000    
  -1.06499996E-02   0.00000000    
  -1.06349997E-02   0.00000000    
  -1.06199998E-02   0.00000000    
  -1.06050000E-02   0.00000000    
  -1.05900001E-02   0.00000000    
  -1.05750002E-02   0.00000000    
  -1.05600003E-02   0.00000000    
  -1.05450004E-02   0.00000000    
  -1.05299996E-02   0.00000000    
  -1.05149997E-02   0.00000000    
  -1.04999999E-02   0.00000000    
  -1.04850000E-02   0.00000000    
  -1.04700001E-02   0.00000000    
  -1.04550002E-02   0.00000000    
  -1.04400003E-02   0.00000000    
  -1.04250005E-02   0.00000000    
  -1.04099996E-02   0.00000000    
  -1.03949998E-02   0.00000000    
  -1.03799999E-02   0.00000000    
  -1.03650000E-02   0.00000000    
  -1.03500001E-02   0.00000000    
  -1.03350002E-02   0.00000000    
  -1.03200004E-02   0.00000000    
  -1.03049995E-02   0.00000000    
  -1.02899997E-02   0.00000000    
  -1.02749998E-02   0.00000000    
  -1.02599999E-02   0.00000000    
  -1.02450000E-02   0.00000000    
  -1.02300001E-02   0.00000000    
  -1.02150002E-02   0.00000000    
  -1.02000004E-02   0.00000000    
  -1.01849996E-02   0.00000000    
  -1.01699997E-02   0.00000000    
  -1.01549998E-02   0.00000000    
  -1.01399999E-02   0.00000000    
  -1.01250000E-02   0.00000000    
  -1.01100001E-02   0.00000000    
  -1.00950003E-02   0.00000000    
  -1.00800004E-02   0.00000000    
  -1.00649996E-02   0.00000000    
  -1.00499997E-02   0.00000000    
  -1.00349998E-02   0.00000000    
  -1.00199999E-02   0.00000000    
  -1.00050000E-02   0.00000000    
  -9.99000017E-03   0.00000000    
  -9.97500028E-03   0.00000000    
  -9.96000040E-03   0.00000000    
  -9.94499959E-03   0.00000000    
  -9.92999971E-03   0.00000000    
  -9.91499983E-03   0.00000000    
  -9.89999995E-03   0.00000000    
  -9.88500006E-03   0.00000000    
  -9.87000018E-03   0.00000000    
  -9.85500030E-03   0.00000000    
  -9.84000042E-03   0.00000000    
  -9.82499961E-03   0.00000000    
  -9.80999973E-03   0.00000000    
  -9.79499985E-03   0.00000000    
  -9.77999996E-03   0.00000000    
  -9.76500008E-03   0.00000000    
  -9.75000020E-03   0.00000000    
  -9.73500032E-03   0.00000000    
  -9.72000044E-03   0.00000000    
  -9.70499963E-03   0.00000000    
  -9.68999974E-03   0.00000000    
  -9.67499986E-03   0.00000000    
  -9.65999998E-03   0.00000000    
  -9.64500010E-03   0.00000000    
  -9.63000022E-03   0.00000000    
  -9.61500034E-03   0.00000000    
  -9.60000046E-03   0.00000000    
  -9.58499964E-03   0.00000000    
  -9.56999976E-03   0.00000000    
  -9.55499988E-03   0.00000000    
  -9.54000000E-03   0.00000000    
  -9.52500012E-03   0.00000000    
  -9.51000024E-03   0.00000000    
  -9.49500035E-03   0.00000000    
  -9.47999954E-03   0.00000000    
  -9.46499966E-03   0.00000000    
  -9.44999978E-03   0.00000000    
  -9.43499990E-03   0.00000000    
  -9.42000002E-03   0.00000000    
  -9.40500014E-03   0.00000000    
  -9.39000025E-03   0.00000000    
  -9.37500037E-03   0.00000000    
  -9.35999956E-03   0.00000000    
  -9.34499968E-03   0.00000000    
  -9.32999980E-03   0.00000000    
  -9.31499992E-03   0.00000000    
  -9.30000003E-03   0.00000000    
  -9.28500015E-03   0.00000000    
  -9.27000027E-03   0.00000000    
  -9.25500039E-03   0.00000000    
  -9.23999958E-03   0.00000000    
  -9.22499970E-03   0.00000000    
  -9.20999981E-03   0.00000000    
  -9.19499993E-03   0.00000000    
  -9.18000005E-03   0.00000000    
  -9.16500017E-03   0.00000000    
  -9.15000029E-03   0.00000000    
  -9.13500041E-03   0.00000000    
  -9.11999959E-03   0.00000000    
  -9.10499971E-03   0.00000000    
  -9.08999983E-03   0.00000000    
  -9.07499995E-03   0.00000000    
  -9.06000007E-03   0.00000000    
  -9.04500019E-03   0.00000000    
  -9.03000031E-03   0.00000000    
  -9.01500043E-03   0.00000000    
  -8.99999961E-03   0.00000000    
  -8.98499973E-03   0.00000000    
  -8.96999985E-03   0.00000000    
  -8.95499997E-03   0.00000000    
  -8.94000009E-03   0.00000000    
  -8.92500021E-03   0.00000000    
  -8.91000032E-03   0.00000000    
  -8.89500044E-03   0.00000000    
  -8.87999963E-03   0.00000000    
  -8.86499975E-03   0.00000000    
  -8.84999987E-03   0.00000000    
  -8.83499999E-03   0.00000000    
  -8.82000010E-03   0.00000000    
  -8.80500022E-03   0.00000000    
  -8.79000034E-03   0.00000000    
  -8.77500046E-03   0.00000000    
  -8.75999965E-03   0.00000000    
  -8.74499977E-03   0.00000000    
  -8.72999988E-03   0.00000000    
  -8.71500000E-03   0.00000000    
  -8.70000012E-03   0.00000000    
  -8.68500024E-03   0.00000000    
  -8.67000036E-03   0.00000000    
  -8.65499955E-03   0.00000000    
  -8.63999967E-03   0.00000000    
  -8.62499978E-03   0.00000000    
  -8.60999990E-03   0.00000000    
  -8.59500002E-03   0.00000000    
  -8.58000014E-03   0.00000000    
  -8.56500026E-03   0.00000000    
  -8.55000038E-03   0.00000000    
  -8.53499956E-03   0.00000000    
  -8.51999968E-03   0.00000000    
  -8.50499980E-03   0.00000000    
  -8.48999992E-03   0.00000000    
  -8.47500004E-03   0.00000000    
  -8.46000016E-03   0.00000000    
  -8.44500028E-03   0.00000000    
  -8.43000039E-03   0.00000000    
  -8.41499958E-03   0.00000000    
  -8.39999970E-03   0.00000000    
  -8.38499982E-03   0.00000000    
  -8.36999994E-03   0.00000000    
  -8.35500006E-03   0.00000000    
  -8.34000017E-03   0.00000000    
  -8.32500029E-03   0.00000000    
  -8.31000041E-03   0.00000000    
  -8.29499960E-03   0.00000000    
  -8.27999972E-03   0.00000000    
  -8.26499984E-03   0.00000000    
  -8.24999996E-03   0.00000000    
  -8.23500007E-03   0.00000000    
  -8.22000019E-03   0.00000000    
  -8.20500031E-03   0.00000000    
  -8.19000043E-03   0.00000000    
  -8.17499962E-03   0.00000000    
  -8.15999974E-03   0.00000000    
  -8.14499985E-03   0.00000000    
  -8.12999997E-03   0.00000000    
  -8.11500009E-03   0.00000000    
  -8.10000021E-03   0.00000000    
  -8.08500033E-03   0.00000000    
  -8.07000045E-03   0.00000000    
  -8.05499963E-03   0.00000000    
  -8.03999975E-03   0.00000000    
  -8.02499987E-03   0.00000000    
  -8.00999999E-03   0.00000000    
  -7.99500011E-03   0.00000000    
  -7.98000023E-03   0.00000000    
  -7.96500035E-03   0.00000000    
  -7.95000046E-03   0.00000000    
  -7.93499965E-03   0.00000000    
  -7.91999977E-03   0.00000000    
  -7.90499989E-03   0.00000000    
  -7.89000001E-03   0.00000000    
  -7.87500013E-03   0.00000000    
  -7.86000025E-03   0.00000000    
  -7.84500036E-03   0.00000000    
  -7.82999955E-03   0.00000000    
  -7.81499967E-03   0.00000000    
  -7.79999979E-03   0.00000000    
  -7.78499991E-03   0.00000000    
  -7.77000003E-03   0.00000000    
  -7.75500014E-03   0.00000000    
  -7.73999980E-03   0.00000000    
  -7.72499992E-03   0.00000000    
  -7.71000003E-03   0.00000000    
  -7.69500015E-03   0.00000000    
  -7.67999981E-03   0.00000000    
  -7.66499992E-03   0.00000000    
  -7.65000004E-03   0.00000000    
  -7.63500016E-03   0.00000000    
  -7.61999981E-03   0.00000000    
  -7.60499993E-03   0.00000000    
  -7.59000005E-03   0.00000000    
  -7.57500017E-03   0.00000000    
  -7.55999982E-03   0.00000000    
  -7.54499994E-03   0.00000000    
  -7.53000006E-03   0.00000000    
  -7.51500018E-03   0.00000000    
  -7.49999983E-03  -2.91756757E-34
  -7.48499995E-03  -4.60042296E-34
  -7.47000007E-03  -6.31589992E-34
  -7.45500019E-03  -7.94897474E-34
  -7.43999984E-03  -9.36641797E-34
  -7.42499996E-03  -9.36641797E-34
  -7.41000008E-03  -9.36641797E-34
  -7.39500020E-03  -9.36641797E-34
  -7.37999985E-03  -9.36641797E-34
  -7.36499997E-03  -7.60843999E-34
  -7.35000009E-03  -4.86761604E-34
  -7.33500021E-03   0.00000000    
  -7.31999986E-03   4.75282855E-34
  -7.30499998E-03   1.03998033E-33
  -7.29000010E-03   1.67756231E-33
  -7.27500021E-03   2.36367614E-33
  -7.25999987E-03   3.06647905E-33
  -7.24499999E-03   3.74707302E-33
  -7.23000010E-03   4.36105649E-33
  -7.21500022E-03   4.85990838E-33
  -7.19999988E-03   5.19254426E-33
  -7.18499999E-03   5.07095333E-33
  -7.17000011E-03   4.77782287E-33
  -7.15500023E-03   3.89181384E-33
  -7.13999989E-03   4.99060764E-34
  -7.12500000E-03  -3.69857543E-33
  -7.11000012E-03  -6.60626576E-33
  -7.09499978E-03  -2.14109449E-32
  -7.07999989E-03  -1.58699305E-32
  -7.06500001E-03  -2.04418321E-32
  -7.05000013E-03  -2.51070224E-32
  -7.03499978E-03  -2.97083951E-32
  -7.01999990E-03  -3.43297130E-32
  -7.00500002E-03  -3.74568748E-32
  -6.99000014E-03  -4.38519637E-32
  -6.97499979E-03  -5.13713307E-32
  -6.95999991E-03  -5.27639330E-32
  -6.94500003E-03  -5.22507121E-32
  -6.93000015E-03  -4.58896244E-32
  -6.91499980E-03  -2.41195292E-32
  -6.89999992E-03   3.76976601E-32
  -6.88500004E-03   6.47431079E-32
  -6.87000016E-03   5.46861484E-32
  -6.85499981E-03   8.13554762E-32
  -6.83999993E-03   1.12158724E-31
  -6.82500005E-03   1.44103559E-31
  -6.81000017E-03   1.84464286E-31
  -6.79499982E-03   2.24158709E-31
  -6.77999994E-03   3.09505053E-31
  -6.76500006E-03   3.06615711E-31
  -6.75000018E-03   3.32562445E-31
  -6.73499983E-03   2.98163672E-31
  -6.71999995E-03   3.58332643E-31
  -6.70500007E-03   4.44049621E-31
  -6.69000018E-03   3.05784355E-31
  -6.67499984E-03   2.75590019E-31
  -6.65999996E-03   1.95013878E-31
  -6.64500007E-03   6.61153154E-32
  -6.63000019E-03  -6.65831268E-32
  -6.61499985E-03  -2.75820910E-31
  -6.59999996E-03  -4.95436638E-31
  -6.58500008E-03  -7.30432817E-31
  -6.57000020E-03  -9.46104340E-31
  -6.55499985E-03  -1.12358885E-30
  -6.53999997E-03  -1.20434437E-30
  -6.52500009E-03  -1.44748776E-30
  -6.51000021E-03  -1.65029251E-30
  -6.49499986E-03  -1.67799411E-30
  -6.47999998E-03  -1.69215891E-30
  -6.46500010E-03  -1.62637204E-30
  -6.45000022E-03  -1.28226873E-30
  -6.43499987E-03  -8.92918110E-31
  -6.41999999E-03  -3.50766574E-31
  -6.40500011E-03   2.36883976E-31
  -6.39000023E-03   9.18263367E-31
  -6.37499988E-03   1.61653757E-30
  -6.36000000E-03   2.32217216E-30
  -6.34500012E-03   3.03185214E-30
  -6.32999977E-03   3.63070107E-30
  -6.31499989E-03   4.30927803E-30
  -6.30000001E-03   4.66984559E-30
  -6.28500013E-03   5.06292865E-30
  -6.26999978E-03   5.09780528E-30
  -6.25499990E-03   4.90463338E-30
  -6.24000002E-03   3.95339401E-30
  -6.22500014E-03   2.65935341E-30
  -6.20999979E-03   1.34776643E-30
  -6.19499991E-03  -2.86732036E-31
  -6.18000003E-03  -2.18571796E-30
  -6.16500014E-03  -4.36355841E-30
  -6.14999980E-03  -6.69633880E-30
  -6.13499992E-03  -9.05183538E-30
  -6.12000003E-03  -1.13487310E-29
  -6.10500015E-03  -1.27257897E-29
  -6.08999981E-03  -1.38663240E-29
  -6.07499992E-03  -1.42563142E-29
  -6.06000004E-03  -1.44613656E-29
  -6.04500016E-03  -1.40904149E-29
  -6.02999981E-03  -1.32041561E-29
  -6.01499993E-03  -1.14665287E-29
  -6.00000005E-03  -8.63335864E-30
  -5.98500017E-03  -4.94752520E-30
  -5.96999982E-03   6.67738390E-31
  -5.95499994E-03   6.93574694E-30
  -5.94000006E-03   1.33010545E-29
  -5.92500018E-03   1.98794594E-29
  -5.90999983E-03   2.58305995E-29
  -5.89499995E-03   3.24146378E-29
  -5.88000007E-03   3.88368708E-29
  -5.86500019E-03   4.59077210E-29
  -5.84999984E-03   5.09024608E-29
  -5.83499996E-03   5.46136315E-29
  -5.82000008E-03   5.62551498E-29
  -5.80500020E-03   5.53416932E-29
  -5.78999985E-03   5.17935525E-29
  -5.77499997E-03   4.50914818E-29
  -5.76000009E-03   3.54677333E-29
  -5.74500021E-03   2.29669087E-29
  -5.72999986E-03   8.12626505E-30
  -5.71499998E-03  -1.13577174E-29
  -5.70000010E-03  -3.10665410E-29
  -5.68500021E-03  -5.14522717E-29
  -5.66999987E-03  -7.33528878E-29
  -5.65499999E-03  -9.39584423E-29
  -5.64000010E-03  -1.13122396E-28
  -5.62500022E-03  -1.30067077E-28
  -5.60999988E-03  -1.42575402E-28
  -5.59500000E-03  -1.51067393E-28
  -5.58000011E-03  -1.54163903E-28
  -5.56500023E-03  -1.51527750E-28
  -5.54999989E-03  -1.41940254E-28
  -5.53500000E-03  -1.25022260E-28
  -5.52000012E-03  -9.99175163E-29
  -5.50499978E-03  -6.64703243E-29
  -5.48999989E-03  -2.70981352E-29
  -5.47500001E-03   1.90240546E-29
  -5.46000013E-03   7.00004336E-29
  -5.44499978E-03   1.22878074E-28
  -5.42999990E-03   1.77277542E-28
  -5.41500002E-03   2.28770938E-28
  -5.40000014E-03   2.75740133E-28
  -5.38499979E-03   3.15134885E-28
  -5.36999991E-03   3.44397585E-28
  -5.35500003E-03   3.60663701E-28
  -5.34000015E-03   3.61621201E-28
  -5.32499980E-03   3.45526710E-28
  -5.30999992E-03   3.12465715E-28
  -5.29500004E-03   2.60504318E-28
  -5.28000016E-03   1.89717112E-28
  -5.26499981E-03   1.02067221E-28
  -5.24999993E-03  -4.00305855E-31
  -5.23500005E-03  -1.14652259E-28
  -5.22000017E-03  -2.36581066E-28
  -5.20499982E-03  -3.61695301E-28
  -5.18999994E-03  -4.83084475E-28
  -5.17500006E-03  -5.94962564E-28
  -5.16000018E-03  -6.90385315E-28
  -5.14499983E-03  -7.63116374E-28
  -5.12999995E-03  -8.06642920E-28
  -5.11500007E-03  -8.16639267E-28
  -5.10000018E-03  -7.88841020E-28
  -5.08499984E-03  -7.20093073E-28
  -5.06999996E-03  -6.07909242E-28
  -5.05500007E-03  -4.53446339E-28
  -5.04000019E-03  -2.59122150E-28
  -5.02499985E-03  -2.97826138E-29
  -5.00999996E-03   2.27374832E-28
  -4.99500008E-03   5.03091661E-28
  -4.98000020E-03   7.86422919E-28
  -4.96499985E-03   1.06375967E-27
  -4.94999997E-03   1.32195918E-27
  -4.93500009E-03   1.54402998E-27
  -4.92000021E-03   1.71514770E-27
  -4.90499986E-03   1.82271185E-27
  -4.88999998E-03   1.85359837E-27
  -4.87500010E-03   1.79699876E-27
  -4.86000022E-03   1.64601644E-27
  -4.84499987E-03   1.39660139E-27
  -4.82999999E-03   1.04958772E-27
  -4.81500011E-03   6.10734485E-28
  -4.80000023E-03   9.12421950E-29
  -4.78499988E-03  -4.92700065E-28
  -4.77000000E-03  -1.11974751E-27
  -4.75500012E-03  -1.76400912E-27
  -4.73999977E-03  -2.39595430E-27
  -4.72499989E-03  -2.98376873E-27
  -4.71000001E-03  -3.49369816E-27
  -4.69500013E-03  -3.89055875E-27
  -4.67999978E-03  -4.14280974E-27
  -4.66499990E-03  -4.22044783E-27
  -4.65000002E-03  -4.09945475E-27
  -4.63500014E-03  -3.76324516E-27
  -4.61999979E-03  -3.20369703E-27
  -4.60499991E-03  -2.42137311E-27
  -4.59000003E-03  -1.42840629E-27
  -4.57500014E-03  -2.48891610E-28
  -4.55999980E-03   1.08127369E-27
  -4.54499992E-03   2.51502839E-27
  -4.53000003E-03   3.99486096E-27
  -4.51500015E-03   5.45416196E-27
  -4.49999981E-03   6.81860706E-27
  -4.48499992E-03   8.01170910E-27
  -4.47000004E-03   8.95638852E-27
  -4.45500016E-03   9.57766579E-27
  -4.43999982E-03   9.80895534E-27
  -4.42499993E-03   9.59363175E-27
  -4.41000005E-03   8.89023437E-27
  -4.39500017E-03   7.67634076E-27
  -4.37999982E-03   5.95116744E-27
  -4.36499994E-03   3.73818996E-27
  -4.35000006E-03   1.08713516E-27
  -4.33500018E-03  -1.92602874E-27
  -4.31999983E-03  -5.19964531E-27
  -4.30499995E-03  -8.60829364E-27
  -4.29000007E-03  -1.20051364E-26
  -4.27500019E-03  -1.52294128E-26
  -4.25999984E-03  -1.81085578E-26
  -4.24499996E-03  -2.04667358E-26
  -4.23000008E-03  -2.21347421E-26
  -4.21500020E-03  -2.29561251E-26
  -4.19999985E-03  -2.27970232E-26
  -4.18499997E-03  -2.15550742E-26
  -4.17000009E-03  -1.91666977E-26
  -4.15500021E-03  -1.56148684E-26
  -4.13999986E-03  -1.09360588E-26
  -4.12499998E-03  -5.22323448E-27
  -4.11000010E-03   1.37380762E-27
  -4.09500021E-03   8.64721899E-27
  -4.07999987E-03   1.63358826E-26
  -4.06499999E-03   2.41318205E-26
  -4.05000011E-03   3.16883546E-26
  -4.03500022E-03   3.86328543E-26
  -4.01999988E-03   4.45811952E-26
  -4.00500000E-03   4.91539631E-26
  -3.99000011E-03   5.19952459E-26
  -3.97500023E-03   5.27915517E-26
  -3.95999989E-03   5.12893910E-26
  -3.94500000E-03   4.73141545E-26
  -3.93000012E-03   4.07859484E-26
  -3.91499978E-03   3.17327342E-26
  -3.89999989E-03   2.03000874E-26
  -3.88500001E-03   6.75641493E-27
  -3.86999990E-03  -8.50673935E-27
  -3.85500002E-03  -2.49799770E-26
  -3.83999990E-03  -4.20482183E-26
  -3.82500002E-03  -5.90079420E-26
  -3.80999991E-03  -7.50896913E-26
  -3.79500003E-03  -8.94873087E-26
  -3.77999991E-03  -1.01390197E-25
  -3.76500003E-03  -1.10020458E-25
  -3.74999992E-03  -1.14670769E-25
  -3.73500003E-03  -1.14743516E-25
  -3.71999992E-03  -1.09787732E-25
  -3.70500004E-03  -9.95335879E-26
  -3.68999992E-03  -8.39220121E-26
  -3.67500004E-03  -6.31278236E-26
  -3.65999993E-03  -3.75728872E-26
  -3.64500005E-03  -7.93102265E-27
  -3.62999993E-03   2.48784774E-26
  -3.61500005E-03   5.97104535E-26
  -3.59999994E-03   9.52234677E-26
  -3.58500006E-03   1.29922679E-25
  -3.56999994E-03   1.62211619E-25
  -3.55500006E-03   1.90455391E-25
  -3.53999995E-03   2.13050894E-25
  -3.52500007E-03   2.28500242E-25
  -3.50999995E-03   2.35486936E-25
  -3.49500007E-03   2.32952055E-25
  -3.47999996E-03   2.20163190E-25
  -3.46500007E-03   1.96776607E-25
  -3.44999996E-03   1.62885417E-25
  -3.43500008E-03   1.19054247E-25
  -3.41999996E-03   6.63346048E-26
  -3.40500008E-03   6.25813641E-27
  -3.38999997E-03  -5.91874572E-26
  -3.37500009E-03  -1.27612599E-25
  -3.35999997E-03  -1.96296425E-25
  -3.34500009E-03  -2.62278625E-25
  -3.32999998E-03  -3.22474776E-25
  -3.31500010E-03  -3.73801888E-25
  -3.29999998E-03  -4.13315043E-25
  -3.28500010E-03  -4.38351122E-25
  -3.26999999E-03  -4.46669906E-25
  -3.25500011E-03  -4.36587031E-25
  -3.23999999E-03  -4.07094333E-25
  -3.22500011E-03  -3.57957518E-25
  -3.21000000E-03  -2.89788078E-25
  -3.19500011E-03  -2.04080917E-25
  -3.18000000E-03  -1.03217562E-25
  -3.16499989E-03   9.57279088E-27
  -3.15000000E-03   1.30292372E-25
  -3.13499989E-03   2.54294712E-25
  -3.12000001E-03   3.76443709E-25
  -3.10499989E-03   4.91307305E-25
  -3.09000001E-03   5.93376045E-25
  -3.07499990E-03   6.77305817E-25
  -3.06000002E-03   7.38169837E-25
  -3.04499990E-03   7.71706730E-25
  -3.03000002E-03   7.74562358E-25
  -3.01499991E-03   7.44503355E-25
  -3.00000003E-03   6.80598670E-25
  -2.98499991E-03   5.83350856E-25
  -2.97000003E-03   4.54775058E-25
  -2.95499992E-03   2.98413705E-25
  -2.94000003E-03   1.19279380E-25
  -2.92499992E-03  -7.62673312E-26
  -2.91000004E-03  -2.80718618E-25
  -2.89499993E-03  -4.85676860E-25
  -2.88000004E-03  -6.82178463E-25
  -2.86499993E-03  -8.61064062E-25
  -2.85000005E-03  -1.01337900E-24
  -2.83499993E-03  -1.13079326E-24
  -2.82000005E-03  -1.20602406E-24
  -2.80499994E-03  -1.23323355E-24
  -2.79000006E-03  -1.20838926E-24
  -2.77499994E-03  -1.12955839E-24
  -2.76000006E-03  -9.97131919E-25
  -2.74499995E-03  -8.13949887E-25
  -2.73000007E-03  -5.85324142E-25
  -2.71499995E-03  -3.18940926E-25
  -2.70000007E-03  -2.46561650E-26
  -2.68499996E-03   2.85835072E-25
  -2.67000007E-03   5.99421382E-25
  -2.65499996E-03   9.02112341E-25
  -2.64000008E-03   1.17961941E-24
  -2.62499996E-03   1.41802727E-24
  -2.61000008E-03   1.60444467E-24
  -2.59499997E-03   1.72768328E-24
  -2.58000009E-03   1.77887049E-24
  -2.56499997E-03   1.75201018E-24
  -2.55000009E-03   1.64442562E-24
  -2.53499998E-03   1.45707707E-24
  -2.52000010E-03   1.19471406E-24
  -2.50499998E-03   8.65880452E-25
  -2.49000010E-03   4.82713356E-25
  -2.47499999E-03   6.05589473E-26
  -2.46000011E-03  -3.82575722E-25
  -2.44499999E-03  -8.26733181E-25
  -2.43000011E-03  -1.25087248E-24
  -2.41500000E-03  -1.63380883E-24
  -2.40000011E-03  -1.95524125E-24
  -2.38500000E-03  -2.19678139E-24
  -2.36999989E-03  -2.34295554E-24
  -2.35500000E-03  -2.38211637E-24
  -2.33999989E-03  -2.30723553E-24
  -2.32500001E-03  -2.11649231E-24
  -2.30999989E-03  -1.81366261E-24
  -2.29500001E-03  -1.40823929E-24
  -2.27999990E-03  -9.15282472E-25
  -2.26500002E-03  -3.55007647E-25
  -2.24999990E-03   2.47971350E-25
  -2.23500002E-03   8.65560175E-25
  -2.21999991E-03   1.46742387E-24
  -2.20500003E-03   2.02236168E-24
  -2.18999991E-03   2.49980022E-24
  -2.17500003E-03   2.87137560E-24
  -2.15999992E-03   3.11246746E-24