  -1.49999997E-02   0.00000000    
  -1.49849998E-02   0.00000000    
  -1.49699999E-02   0.00000000    
  -1.49550000E-02  -9.30660526E-25
  -1.49400001E-02  -6.46456721E-24
  -1.49250003E-02  -2.55858846E-23
  -1.49100004E-02  -7.57300726E-23
  -1.48949996E-02  -1.86247813E-22
  -1.48799997E-02  -4.01901634E-22
  -1.48649998E-02  -7.86072705E-22
  -1.48499999E-02  -1.42334014E-21
  -1.48350000E-02  -2.42109949E-21
  -1.48200002E-02  -3.90990666E-21
  -1.48050003E-02  -6.04227407E-21
  -1.47900004E-02  -8.98970439E-21
  -1.47749996E-02  -1.29378164E-20
  -1.47599997E-02  -1.80794960E-20
  -1.47449998E-02  -2.46061320E-20
  -1.47299999E-02  -3.26970214E-20
  -1.47150001E-02  -4.25072478E-20
  -1.47000002E-02  -5.41543224E-20
  -1.46850003E-02  -6.77040352E-20
  -1.46700004E-02  -8.31560340E-20
  -1.46549996E-02  -1.00429685E-19
  -1.46399997E-02  -1.19350918E-19
  -1.46249998E-02  -1.39640624E-19
  -1.46100000E-02  -1.60905279E-19
  -1.45950001E-02  -1.82630597E-19
  -1.45800002E-02  -2.04178445E-19
  -1.45650003E-02  -2.24787986E-19
  -1.45500004E-02  -2.43580987E-19
  -1.45349996E-02  -2.59571990E-19
  -1.45199997E-02  -2.71683259E-19
  -1.45049999E-02  -2.78764571E-19
  -1.44900000E-02  -2.79617523E-19
  -1.44750001E-02  -2.73024248E-19
  -1.44600002E-02  -2.57779878E-19
  -1.44450003E-02  -2.32727808E-19
  -1.44300004E-02  -1.96797486E-19
  -1.44149996E-02  -1.49043148E-19
  -1.43999998E-02  -8.86825634E-20
  -1.43849999E-02  -1.51349317E-20
  -1.43700000E-02   7.19438851E-20
  -1.43550001E-02   1.72629505E-19
  -1.43400002E-02   2.86702274E-19
  -1.43250003E-02   4.13626185E-19
  -1.43100005E-02   5.52535246E-19
  -1.42949997E-02   7.02227536E-19
  -1.42799998E-02   8.61167810E-19
  -1.42649999E-02   1.02750008E-18
  -1.42500000E-02   1.19906840E-18
  -1.42350001E-02   1.37344831E-18
  -1.42200002E-02   1.54798652E-18
  -1.42050004E-02   1.71984973E-18
  -1.41899996E-02   1.88608098E-18
  -1.41749997E-02   2.04366344E-18
  -1.41599998E-02   2.18958761E-18
  -1.41449999E-02   2.32092384E-18
  -1.41300000E-02   2.43489712E-18
  -1.41150001E-02   2.52896038E-18
  -1.41000003E-02   2.60086698E-18
  -1.40850004E-02   2.64873861E-18
  -1.40699996E-02   2.67112833E-18
  -1.40549997E-02   2.66707369E-18
  -1.40399998E-02   2.63614272E-18
  -1.40249999E-02   2.57846631E-18
  -1.40100000E-02   2.49475977E-18
  -1.39950002E-02   2.38632963E-18
  -1.39800003E-02   2.25506620E-18
  -1.39650004E-02   2.10342207E-18
  -1.39499996E-02   1.93437468E-18
  -1.39349997E-02   1.75137648E-18
  -1.39199998E-02   1.55828926E-18
  -1.39049999E-02   1.35930921E-18
  -1.38900001E-02   1.15887838E-18
  -1.38750002E-02   9.61589914E-19
  -1.38600003E-02   7.72085834E-19
  -1.38450004E-02   5.94950741E-19
  -1.38299996E-02   4.34604571E-19
  -1.38149997E-02   2.95197212E-19
  -1.37999998E-02   1.80506720E-19
  -1.37850000E-02   9.38445129E-20
  -1.37700001E-02   3.79710636E-20
  -1.37550002E-02   1.50220668E-20
  -1.37400003E-02   2.64501211E-20
  -1.37250004E-02   7.29822359E-20
  -1.37099996E-02   1.54594124E-19
  -1.36949997E-02   2.70502717E-19
  -1.36799999E-02   4.19179075E-19
  -1.36650000E-02   5.98378009E-19
  -1.36500001E-02   8.05187638E-19
  -1.36350002E-02   1.03609583E-18
  -1.36200003E-02   1.28707173E-18
  -1.36050005E-02   1.55366295E-18
  -1.35899996E-02   1.83110139E-18
  -1.35749998E-02   2.11442026E-18
  -1.35599999E-02   2.39857521E-18
  -1.35450000E-02   2.67856964E-18
  -1.35300001E-02   2.94957655E-18
  -1.35150002E-02   3.20705844E-18
  -1.35000004E-02   3.44687795E-18
  -1.34849995E-02   3.66540025E-18
  -1.34699997E-02   3.85957924E-18
  -1.34549998E-02   4.02702831E-18
  -1.34399999E-02   4.16607530E-18
  -1.34250000E-02   4.27579543E-18
  -1.34100001E-02   4.35602285E-18
  -1.33950002E-02   4.40734445E-18
  -1.33800004E-02   4.43106675E-18
  -1.33649996E-02   4.42917044E-18
  -1.33499997E-02   4.40423714E-18
  -1.33349998E-02   4.35936425E-18
  -1.33199999E-02   4.29806438E-18
  -1.33050000E-02   4.22415124E-18
  -1.32900001E-02   4.14161681E-18
  -1.32750003E-02   4.05450435E-18
  -1.32600004E-02   3.96677937E-18
  -1.32449996E-02   3.88220263E-18
  -1.32299997E-02   3.80420736E-18
  -1.32149998E-02   3.73579125E-18
  -1.31999999E-02   3.67941393E-18
  -1.31850000E-02   3.63691711E-18
  -1.31700002E-02   3.60945844E-18
  -1.31550003E-02   3.59746970E-18
  -1.31400004E-02   3.60063449E-18
  -1.31249996E-02   3.61788948E-18
  -1.31099997E-02   3.64745043E-18
  -1.30949998E-02   3.68685649E-18
  -1.30799999E-02   3.73304129E-18
  -1.30650001E-02   3.78241859E-18
  -1.30500002E-02   3.83098775E-18
  -1.30350003E-02   3.87445195E-18
  -1.30200004E-02   3.90834609E-18
  -1.30049996E-02   3.92817278E-18
  -1.29899997E-02   3.92953928E-18
  -1.29749998E-02   3.90829191E-18
  -1.29600000E-02   3.86064755E-18
  -1.29450001E-02   3.78331030E-18
  -1.29300002E-02   3.67357941E-18
  -1.29150003E-02   3.52943409E-18
  -1.29000004E-02   3.34960213E-18
  -1.28849996E-02   3.13360501E-18
  -1.28699997E-02   2.88177773E-18
  -1.28549999E-02   2.59526511E-18
  -1.28400000E-02   2.27599138E-18
  -1.28250001E-02   1.92660766E-18
  -1.28100002E-02   1.55041357E-18
  -1.27950003E-02   1.15126357E-18
  -1.27800005E-02   7.33451381E-19
  -1.27649996E-02   3.01582452E-19
  -1.27499998E-02  -1.39559961E-19
  -1.27349999E-02  -5.85154493E-19
  -1.27200000E-02  -1.03048238E-18
  -1.27050001E-02  -1.47105893E-18
  -1.26900002E-02  -1.90275570E-18
  -1.26750004E-02  -2.32190632E-18
  -1.26599995E-02  -2.72539096E-18
  -1.26449997E-02  -3.11069789E-18
  -1.26299998E-02  -3.47595231E-18
  -1.26149999E-02  -3.81992586E-18
  -1.26000000E-02  -4.14200062E-18
  -1.25850001E-02  -4.44210837E-18
  -1.25700003E-02  -4.72064200E-18
  -1.25550004E-02  -4.97832572E-18
  -1.25399996E-02  -5.21606859E-18
  -1.25249997E-02  -5.43479252E-18
  -1.25099998E-02  -5.63523989E-18
  -1.24949999E-02  -5.81776970E-18
  -1.24800000E-02  -5.98214992E-18
  -1.24650002E-02  -6.12735280E-18
  -1.24500003E-02  -6.25135751E-18
  -1.24350004E-02  -6.35097197E-18
  -1.24199996E-02  -6.42167813E-18
  -1.24049997E-02  -6.45751449E-18
  -1.23899998E-02  -6.45099590E-18
  -1.23749999E-02  -6.39307878E-18
  -1.23600001E-02  -6.27318308E-18
  -1.23450002E-02  -6.07926506E-18
  -1.23300003E-02  -5.79795252E-18
  -1.23150004E-02  -5.41473670E-18
  -1.22999996E-02  -4.91422791E-18
  -1.22849997E-02  -4.28046239E-18
  -1.22699998E-02  -3.49726752E-18
  -1.22550000E-02  -2.54866920E-18
  -1.22400001E-02  -1.41934494E-18
  -1.22250002E-02  -9.50986674E-20
  -1.22100003E-02   1.43663778E-18
  -1.21950004E-02   3.18630137E-18
  -1.21799996E-02   5.16169636E-18
  -1.21649997E-02   7.36750912E-18
  -1.21499998E-02   9.80487289E-18
  -1.21350000E-02   1.24709554E-17
  -1.21200001E-02   1.53586247E-17
  -1.21050002E-02   1.84561812E-17
  -1.20900003E-02   2.17471921E-17
  -1.20750004E-02   2.52103888E-17
  -1.20599996E-02   2.88197104E-17
  -1.20449997E-02   3.25444253E-17
  -1.20299999E-02   3.63493833E-17
  -1.20150000E-02   4.01953926E-17
  -1.20000001E-02   4.40396848E-17
  -1.19850002E-02   4.78365497E-17
  -1.19700003E-02   5.15379844E-17
  -1.19550005E-02   5.50945235E-17
  -1.19399996E-02   5.84561127E-17
  -1.19249998E-02   6.15730550E-17
  -1.19099999E-02   6.43969901E-17
  -1.18950000E-02   6.68819267E-17
  -1.18800001E-02   6.89852815E-17
  -1.18650002E-02   7.06688852E-17
  -1.18500004E-02   7.18999616E-17
  -1.18349995E-02   7.26520541E-17
  -1.18199997E-02   7.29058463E-17
  -1.18049998E-02   7.26498835E-17
  -1.17899999E-02   7.18811945E-17
  -1.17750000E-02   7.06057151E-17
  -1.17600001E-02   6.88385992E-17
  -1.17450003E-02   6.66043050E-17
  -1.17300004E-02   6.39365416E-17
  -1.17149996E-02   6.08779917E-17
  -1.16999997E-02   5.74798609E-17
  -1.16849998E-02   5.38012167E-17
  -1.16699999E-02   4.99081507E-17
  -1.16550000E-02   4.58727666E-17
  -1.16400002E-02   4.17720121E-17
  -1.16250003E-02   3.76863553E-17
  -1.16100004E-02   3.36983654E-17
  -1.15949996E-02   2.98911707E-17
  -1.15799997E-02   2.63468854E-17
  -1.15649998E-02   2.31450049E-17
  -1.15499999E-02   2.03607613E-17
  -1.15350001E-02   1.80635583E-17
  -1.15200002E-02   1.63154626E-17
  -1.15050003E-02   1.51697827E-17
  -1.14900004E-02   1.46698017E-17
  -1.14749996E-02   1.48476687E-17
  -1.14599997E-02   1.57234825E-17
  -1.14449998E-02   1.73045953E-17
  -1.14300000E-02   1.95851405E-17
  -1.14150001E-02   2.25458465E-17
  -1.14000002E-02   2.61540630E-17
  -1.13850003E-02   3.03640963E-17
  -1.13700004E-02   3.51177974E-17
  -1.13549996E-02   4.03453870E-17
  -1.13399997E-02   4.59665921E-17
  -1.13249999E-02   5.18919449E-17
  -1.13100000E-02   5.80243245E-17
  -1.12950001E-02   6.42606641E-17
  -1.12800002E-02   7.04938472E-17
  -1.12650003E-02   7.66146264E-17
  -1.12500004E-02   8.25137278E-17
  -1.12349996E-02   8.80839025E-17
  -1.12199998E-02   9.32219977E-17
  -1.12049999E-02   9.78310150E-17
  -1.11900000E-02   1.01821970E-16
  -1.11750001E-02   1.05115710E-16
  -1.11600002E-02   1.07644560E-16
  -1.11450003E-02   1.09353661E-16
  -1.11300005E-02   1.10202209E-16
  -1.11149997E-02   1.10164278E-16
  -1.10999998E-02   1.09229498E-16
  -1.10849999E-02   1.07403281E-16
  -1.10700000E-02   1.04706917E-16
  -1.10550001E-02   1.01177152E-16
  -1.10400002E-02   9.68656357E-17
  -1.10250004E-02   9.18379657E-17
  -1.10099996E-02   8.61724866E-17
  -1.09949997E-02   7.99588382E-17
  -1.09799998E-02   7.32962557E-17
  -1.09649999E-02   6.62917167E-17
  -1.09500000E-02   5.90578899E-17
  -1.09350001E-02   5.17110041E-17
  -1.09200003E-02   4.43686677E-17
  -1.09050004E-02   3.71476159E-17
  -1.08899996E-02   3.01615330E-17
  -1.08749997E-02   2.35189567E-17
  -1.08599998E-02   1.73212431E-17
  -1.08449999E-02   1.16607461E-17
  -1.08300000E-02   6.61922168E-18
  -1.08150002E-02   2.26637872E-18
  -1.08000003E-02  -1.34124245E-18
  -1.07850004E-02  -4.16110188E-18
  -1.07699996E-02  -6.16521699E-18
  -1.07549997E-02  -7.34035857E-18
  -1.07399998E-02  -7.68802010E-18
  -1.07249999E-02  -7.22398667E-18
  -1.07100001E-02  -5.97764055E-18
  -1.06950002E-02  -3.99099591E-18
  -1.06800003E-02  -1.31744136E-18
  -1.06650004E-02   1.97970005E-18
  -1.06499996E-02   5.82884854E-18
  -1.06349997E-02   1.01519438E-17
  -1.06199998E-02   1.48663778E-17
  -1.06050000E-02   1.98869688E-17
  -1.05900001E-02   2.51279620E-17
  -1.05750002E-02   3.05049817E-17
  -1.05600003E-02   3.59369312E-17
  -1.05450004E-02   4.13477545E-17
  -1.05299996E-02   4.66680644E-17
  -1.05149997E-02   5.18365503E-17
  -1.04999999E-02   5.68011890E-17
  -1.04850000E-02   6.15201419E-17
  -1.04700001E-02   6.59624856E-17
  -1.04550002E-02   7.01085531E-17
  -1.04400003E-02   7.39500593E-17
  -1.04250005E-02   7.74899026E-17
  -1.04099996E-02   8.07416753E-17
  -1.03949998E-02   8.37289951E-17
  -1.03799999E-02   8.64844462E-17
  -1.03650000E-02   8.90484745E-17
  -1.03500001E-02   9.14679645E-17
  -1.03350002E-02   9.37947442E-17
  -1.03200004E-02   9.60840029E-17
  -1.03049995E-02   9.83925581E-17
  -1.02899997E-02   1.00777214E-16
  -1.02749998E-02   1.03293080E-16
  -1.02599999E-02   1.05991999E-16
  -1.02450000E-02   1.08921052E-16
  -1.02300001E-02   1.12121248E-16
  -1.02150002E-02   1.15626403E-16
  -1.02000004E-02   1.19462126E-16
  -1.01849996E-02   1.23645317E-16
  -1.01699997E-02   1.28183521E-16
  -1.01549998E-02   1.33074938E-16
  -1.01399999E-02   1.38308489E-16
  -1.01250000E-02   1.43864086E-16
  -1.01100001E-02   1.49713378E-16
  -1.00950003E-02   1.55820591E-16
  -1.00800004E-02   1.62143613E-16
  -1.00649996E-02   1.68635194E-16
  -1.00499997E-02   1.75244420E-16
  -1.00349998E-02   1.81918179E-16
  -1.00199999E-02   1.88602844E-16
  -1.00050000E-02   1.95245779E-16
  -9.99000017E-03   2.01797050E-16
  -9.97500028E-03   2.08210797E-16
  -9.96000040E-03   2.14446852E-16
  -9.94499959E-03   2.20471877E-16
  -9.92999971E-03   2.26260473E-16
  -9.91499983E-03   2.31796178E-16
  -9.89999995E-03   2.37071922E-16
  -9.88500006E-03   2.42090619E-16
  -9.87000018E-03   2.46865026E-16
  -9.85500030E-03   2.51417775E-16
  -9.84000042E-03   2.55780868E-16
  -9.82499961E-03   2.59994857E-16
  -9.80999973E-03   2.64107917E-16
  -9.79499985E-03   2.68174734E-16
  -9.77999996E-03   2.72254892E-16
  -9.76500008E-03   2.76411468E-16
  -9.75000020E-03   2.80709233E-16
  -9.73500032E-03   2.85212828E-16
  -9.72000044E-03   2.89985091E-16
  -9.70499963E-03   2.95085077E-16
  -9.68999974E-03   3.00566333E-16
  -9.67499986E-03   3.06475367E-16
  -9.65999998E-03   3.12849978E-16
  -9.64500010E-03   3.19718039E-16
  -9.63000022E-03   3.27096357E-16
  -9.61500034E-03   3.34990016E-16
  -9.60000046E-03   3.43391657E-16
  -9.58499964E-03   3.52281373E-16
  -9.56999976E-03   3.61626794E-16
  -9.55499988E-03   3.71383422E-16
  -9.54000000E-03   3.81495460E-16
  -9.52500012E-03   3.91896813E-16
  -9.51000024E-03   4.02512386E-16
  -9.49500035E-03   4.13259593E-16
  -9.47999954E-03   4.24050210E-16
  -9.46499966E-03   4.34792282E-16
  -9.44999978E-03   4.45392211E-16
  -9.43499990E-03   4.55756877E-16
  -9.42000002E-03   4.65795858E-16
  -9.40500014E-03   4.75423606E-16
  -9.39000025E-03   4.84561344E-16
  -9.37500037E-03   4.93139141E-16
  -9.35999956E-03   5.01097704E-16
  -9.34499968E-03   5.08389810E-16
  -9.32999980E-03   5.14981474E-16
  -9.31499992E-03   5.20853265E-16
  -9.30000003E-03   5.26000366E-16
  -9.28500015E-03   5.30433260E-16
  -9.27000027E-03   5.34177622E-16
  -9.25500039E-03   5.37273740E-16
  -9.23999958E-03   5.39775822E-16
  -9.22499970E-03   5.41750891E-16
  -9.20999981E-03   5.43277350E-16
  -9.19499993E-03   5.44443238E-16
  -9.18000005E-03   5.45344322E-16
  -9.16500017E-03   5.46082088E-16
  -9.15000029E-03   5.46761197E-16
  -9.13500041E-03   5.47487581E-16
  -9.11999959E-03   5.48365636E-16
  -9.10499971E-03   5.49496054E-16
  -9.08999983E-03   5.50973809E-16
  -9.07499995E-03   5.52885563E-16
  -9.06000007E-03   5.55308077E-16
  -9.04500019E-03   5.58306626E-16
  -9.03000031E-03   5.61933410E-16
  -9.01500043E-03   5.66226332E-16
  -8.99999961E-03   5.71208632E-16
  -8.98499973E-03   5.76888359E-16
  -8.96999985E-03   5.83258258E-16
  -8.95499997E-03   5.90296255E-16
  -8.94000009E-03   5.97966138E-16
  -8.92500021E-03   6.06218727E-16
  -8.91000032E-03   6.14993036E-16
  -8.89500044E-03   6.24218072E-16
  -8.87999963E-03   6.33814690E-16
  -8.86499975E-03   6.43697606E-16
  -8.84999987E-03   6.53777563E-16
  -8.83499999E-03   6.63963663E-16
  -8.82000010E-03   6.74165752E-16
  -8.80500022E-03   6.84296213E-16
  -8.79000034E-03   6.94272567E-16
  -8.77500046E-03   7.04019269E-16
  -8.75999965E-03   7.13469245E-16
  -8.74499977E-03   7.22565744E-16
  -8.72999988E-03   7.31263396E-16
  -8.71500000E-03   7.39528902E-16
  -8.70000012E-03   7.47341934E-16
  -8.68500024E-03   7.54694974E-16
  -8.67000036E-03   7.61593422E-16
  -8.65499955E-03   7.68054695E-16
  -8.63999967E-03   7.74107804E-16
  -8.62499978E-03   7.79791766E-16
  -8.60999990E-03   7.85154491E-16
  -8.59500002E-03   7.90250717E-16
  -8.58000014E-03   7.95140533E-16
  -8.56500026E-03   7.99887093E-16
  -8.55000038E-03   8.04554721E-16
  -8.53499956E-03   8.09206785E-16
  -8.51999968E-03   8.13903477E-16
  -8.50499980E-03   8.18700225E-16
  -8.48999992E-03   8.23645838E-16
  -8.47500004E-03   8.28781028E-16
  -8.46000016E-03   8.34137029E-16
  -8.44500028E-03   8.39734700E-16
  -8.43000039E-03   8.45584256E-16
  -8.41499958E-03   8.51684746E-16
  -8.39999970E-03   8.58024311E-16
  -8.38499982E-03   8.64580823E-16
  -8.36999994E-03   8.71322676E-16
  -8.35500006E-03   8.78210377E-16
  -8.34000017E-03   8.85197711E-16
  -8.32500029E-03   8.92234013E-16
  -8.31000041E-03   8.99266081E-16
  -8.29499960E-03   9.06240656E-16
  -8.27999972E-03   9.13106388E-16
  -8.26499984E-03   9.19816688E-16
  -8.24999996E-03   9.26332278E-16
  -8.23500007E-03   9.32622662E-16
  -8.22000019E-03   9.38669101E-16
  -8.20500031E-03   9.44465877E-16
  -8.19000043E-03   9.50022095E-16
  -8.17499962E-03   9.55362532E-16
  -8.15999974E-03   9.60528692E-16
  -8.14499985E-03   9.65578702E-16
  -8.12999997E-03   9.70587314E-16
  -8.11500009E-03   9.75644842E-16
  -8.10000021E-03   9.80855788E-16
  -8.08500033E-03   9.86337362E-16
  -8.07000045E-03   9.92217041E-16
  -8.05499963E-03   9.98629293E-16
  -8.03999975E-03   1.00571303E-15
  -8.02499987E-03   1.01360780E-15
  -8.00999999E-03   1.02244998E-15
  -7.99500011E-03   1.03236863E-15
  -7.98000023E-03   1.04348202E-15
  -7.96500035E-03   1.05589274E-15
  -7.95000046E-03   1.06968435E-15
  -7.93499965E-03   1.08491749E-15
  -7.91999977E-03   1.10162628E-15
  -7.90499989E-03   1.11981546E-15
  -7.89000001E-03   1.13945773E-15
  -7.87500013E-03   1.16049210E-15
  -7.86000025E-03   1.18282190E-15
  -7.84500036E-03   1.20631510E-15
  -7.82999955E-03   1.23080346E-15
  -7.81499967E-03   1.25608422E-15
  -7.79999979E-03   1.28192200E-15
  -7.78499991E-03   1.30805022E-15
  -7.77000003E-03   1.33417536E-15
  -7.75500014E-03   1.35998054E-15
  -7.73999980E-03   1.38513032E-15
  -7.72499992E-03   1.40927616E-15
  -7.71000003E-03   1.43206145E-15
  -7.69500015E-03   1.45312864E-15
  -7.67999981E-03   1.47212484E-15
  -7.66499992E-03   1.48870837E-15
  -7.65000004E-03   1.50255609E-15
  -7.63500016E-03   1.51336952E-15
  -7.61999981E-03   1.52087995E-15
  -7.60499993E-03   1.52485603E-15
  -7.59000005E-03   1.52510834E-15
  -7.57500017E-03   1.52149384E-15
  -7.55999982E-03   1.51391956E-15
  -7.54499994E-03   1.50234666E-15
  -7.53000006E-03   1.48679185E-15
  -7.51500018E-03   1.46732883E-15
  -7.49999983E-03   1.44408826E-15
  -7.48499995E-03   1.41725669E-15
  -7.47000007E-03   1.38707521E-15
  -7.45500019E-03   1.35383563E-15
  -7.43999984E-03   1.31787739E-15
  -7.42499996E-03   1.27958165E-15
  -7.41000008E-03   1.23936580E-15
  -7.39500020E-03   1.19767769E-15
  -7.37999985E-03   1.15498639E-15
  -7.36499997E-03   1.11177659E-15
  -7.35000009E-03   1.06853873E-15
  -7.33500021E-03   1.02576177E-15
  -7.31999986E-03   9.83924589E-16
  -7.30499998E-03   9.43486707E-16
  -7.29000010E-03   9.04881062E-16
  -7.27500021E-03   8.68505921E-16
  -7.25999987E-03   8.34717512E-16
  -7.24499999E-03   8.03823997E-16
  -7.23000010E-03   7.76078956E-16
  -7.21500022E-03   7.51677472E-16
  -7.19999988E-03   7.30752000E-16
  -7.18499999E-03   7.13369242E-16
  -7.17000011E-03   6.99528777E-16
  -7.15500023E-03   6.89163105E-16
  -7.13999989E-03   6.82137285E-16
  -7.12500000E-03   6.78252315E-16
  -7.11000012E-03   6.77246411E-16
  -7.09499978E-03   6.78801034E-16
  -7.07999989E-03   6.82543808E-16
  -7.06500001E-03   6.88056139E-16
  -7.05000013E-03   6.94878619E-16
  -7.03499978E-03   7.02519227E-16
  -7.01999990E-03   7.10460902E-16
  -7.00500002E-03   7.18169696E-16
  -6.99000014E-03   7.25102819E-16
  -6.97499979E-03   7.30717377E-16
  -6.95999991E-03   7.34479686E-16
  -6.94500003E-03   7.35870514E-16
  -6.93000015E-03   7.34395724E-16
  -6.91499980E-03   7.29592464E-16
  -6.89999992E-03   7.21034414E-16
  -6.88500004E-03   7.08339984E-16
  -6.87000016E-03   6.91174544E-16
  -6.85499981E-03   6.69256243E-16
  -6.83999993E-03   6.42358394E-16
  -6.82500005E-03   6.10311802E-16
  -6.81000017E-03   5.73004766E-16
  -6.79499982E-03   5.30384027E-16
  -6.77999994E-03   4.82452761E-16
  -6.76500006E-03   4.29270210E-16
  -6.75000018E-03   3.70947068E-16
  -6.73499983E-03   3.07642552E-16
  -6.71999995E-03   2.39560611E-16
  -6.70500007E-03   1.66942359E-16
  -6.69000018E-03   9.00633325E-17
  -6.67499984E-03   9.22670508E-18
  -6.65999996E-03  -7.52446763E-17
  -6.64500007E-03  -1.63012457E-16
  -6.63000019E-03  -2.53730546E-16
  -6.61499985E-03  -3.47050786E-16
  -6.59999996E-03  -4.42630963E-16
  -6.58500008E-03  -5.40138140E-16
  -6.57000020E-03  -6.39257195E-16
  -6.55499985E-03  -7.39693385E-16
  -6.53999997E-03  -8.41177832E-16
  -6.52500009E-03  -9.43471778E-16
  -6.51000021E-03  -1.04636934E-15
  -6.49499986E-03  -1.14970238E-15
  -6.47999998E-03  -1.25333888E-15
  -6.46500010E-03  -1.35718607E-15
  -6.45000022E-03  -1.46119303E-15
  -6.43499987E-03  -1.56534685E-15
  -6.41999999E-03  -1.66967293E-15
  -6.40500011E-03  -1.77423629E-15
  -6.39000023E-03  -1.87913730E-15
  -6.37499988E-03  -1.98451053E-15
  -6.36000000E-03  -2.09052072E-15
  -6.34500012E-03  -2.19736101E-15
  -6.32999977E-03  -2.30525056E-15
  -6.31499989E-03  -2.41442782E-15
  -6.30000001E-03  -2.52514963E-15
  -6.28500013E-03  -2.63768770E-15
  -6.26999978E-03  -2.75232387E-15
  -6.25499990E-03  -2.86934550E-15
  -6.24000002E-03  -2.98904502E-15
  -6.22500014E-03  -3.11171233E-15
  -6.20999979E-03  -3.23763521E-15
  -6.19499991E-03  -3.36709806E-15
  -6.18000003E-03  -3.50037318E-15
  -6.16500014E-03  -3.63772402E-15
  -6.14999980E-03  -3.77939833E-15
  -6.13499992E-03  -3.92563264E-15
  -6.12000003E-03  -4.07664548E-15
  -6.10500015E-03  -4.23264058E-15
  -6.08999981E-03  -4.39379961E-15
  -6.07499992E-03  -4.56028817E-15
  -6.06000004E-03  -4.73225619E-15
  -6.04500016E-03  -4.90983198E-15
  -6.02999981E-03  -5.09312695E-15
  -6.01499993E-03  -5.28223383E-15
  -6.00000005E-03  -5.47723098E-15
  -5.98500017E-03  -5.67817938E-15
  -5.96999982E-03  -5.88512478E-15
  -5.95499994E-03  -6.09810020E-15
  -5.94000006E-03  -6.31712640E-15
  -5.92500018E-03  -6.54221609E-15
  -5.90999983E-03  -6.77337096E-15
  -5.89499995E-03  -7.01058635E-15
  -5.88000007E-03  -7.25385125E-15
  -5.86500019E-03  -7.50315422E-15
  -5.84999984E-03  -7.75848129E-15
  -5.83499996E-03  -8.01981806E-15
  -5.82000008E-03  -8.28715690E-15
  -5.80500020E-03  -8.56048851E-15
  -5.78999985E-03  -8.83981710E-15
  -5.77499997E-03  -9.12515455E-15
  -5.76000009E-03  -9.41652203E-15
  -5.74500021E-03  -9.71395680E-15
  -5.72999986E-03  -1.00175088E-14
  -5.71499998E-03  -1.03272434E-14
  -5.70000010E-03  -1.06432460E-14
  -5.68500021E-03  -1.09656250E-14
  -5.66999987E-03  -1.12945033E-14
  -5.65499999E-03  -1.16300300E-14
  -5.64000010E-03  -1.19723779E-14
  -5.62500022E-03  -1.23217408E-14
  -5.60999988E-03  -1.26783324E-14
  -5.59500000E-03  -1.30423973E-14
  -5.58000011E-03  -1.34141923E-14
  -5.56500023E-03  -1.37940018E-14
  -5.54999989E-03  -1.41821301E-14
  -5.53500000E-03  -1.45788990E-14
  -5.52000012E-03  -1.49846413E-14
  -5.50499978E-03  -1.53997095E-14
  -5.48999989E-03  -1.58244610E-14
  -5.47500001E-03  -1.62592650E-14
  -5.46000013E-03  -1.67044926E-14
  -5.44499978E-03  -1.71605182E-14
  -5.42999990E-03  -1.76277111E-14
  -5.41500002E-03  -1.81064338E-14
  -5.40000014E-03  -1.85970370E-14
  -5.38499979E-03  -1.90998594E-14
  -5.36999991E-03  -1.96152248E-14
  -5.35500003E-03  -2.01434277E-14
  -5.34000015E-03  -2.06847479E-14
  -5.32499980E-03  -2.12394325E-14
  -5.30999992E-03  -2.18077052E-14
  -5.29500004E-03  -2.23897540E-14
  -5.28000016E-03  -2.29857383E-14
  -5.26499981E-03  -2.35957900E-14
  -5.24999993E-03  -2.42200008E-14
  -5.23500005E-03  -2.48584383E-14
  -5.22000017E-03  -2.55111399E-14
  -5.20499982E-03  -2.61781224E-14
  -5.18999994E-03  -2.68593605E-14
  -5.17500006E-03  -2.75548271E-14
  -5.16000018E-03  -2.82644713E-14
  -5.14499983E-03  -2.89882322E-14
  -5.12999995E-03  -2.97260419E-14
  -5.11500007E-03  -3.04778379E-14
  -5.10000018E-03  -3.12435624E-14
  -5.08499984E-03  -3.20231580E-14
  -5.06999996E-03  -3.28165941E-14
  -5.05500007E-03  -3.36238571E-14
  -5.04000019E-03  -3.44449709E-14
  -5.02499985E-03  -3.52799929E-14
  -5.00999996E-03  -3.61290113E-14
  -4.99500008E-03  -3.69921616E-14
  -4.98000020E-03  -3.78696437E-14
  -4.96499985E-03  -3.87616812E-14
  -4.94999997E-03  -3.96685756E-14
  -4.93500009E-03  -4.05906659E-14
  -4.92000021E-03  -4.15283652E-14
  -4.90499986E-03  -4.24821209E-14
  -4.88999998E-03  -4.34524548E-14
  -4.87500010E-03  -4.44399326E-14
  -4.86000022E-03  -4.54451675E-14
  -4.84499987E-03  -4.64688238E-14
  -4.82999999E-03  -4.75116094E-14
  -4.81500011E-03  -4.85742563E-14
  -4.80000023E-03  -4.96575539E-14
  -4.78499988E-03  -5.07622847E-14
  -4.77000000E-03  -5.18892655E-14
  -4.75500012E-03  -5.30393227E-14
  -4.73999977E-03  -5.42132901E-14
  -4.72499989E-03  -5.54119840E-14
  -4.71000001E-03  -5.66362346E-14
  -4.69500013E-03  -5.78868347E-14
  -4.67999978E-03  -5.91645670E-14
  -4.66499990E-03  -6.04702039E-14
  -4.65000002E-03  -6.18044502E-14
  -4.63500014E-03  -6.31680038E-14
  -4.61999979E-03  -6.45615221E-14
  -4.60499991E-03  -6.59856216E-14
  -4.59000003E-03  -6.74408920E-14
  -4.57500014E-03  -6.89278550E-14
  -4.55999980E-03  -7.04470052E-14
  -4.54499992E-03  -7.19988170E-14
  -4.53000003E-03  -7.35836901E-14
  -4.51500015E-03  -7.52020381E-14
  -4.49999981E-03  -7.68542334E-14
  -4.48499992E-03  -7.85406083E-14
  -4.47000004E-03  -8.02614811E-14
  -4.45500016E-03  -8.20171771E-14
  -4.43999982E-03  -8.38080216E-14
  -4.42499993E-03  -8.56342788E-14
  -4.41000005E-03  -8.74962876E-14
  -4.39500017E-03  -8.93943326E-14
  -4.37999982E-03  -9.13287661E-14
  -4.36499994E-03  -9.32999338E-14
  -4.35000006E-03  -9.53081811E-14
  -4.33500018E-03  -9.73539012E-14
  -4.31999983E-03  -9.94375209E-14
  -4.30499995E-03  -1.01559460E-13
  -4.29000007E-03  -1.03720194E-13
  -4.27500019E-03  -1.05920189E-13
  -4.25999984E-03  -1.08159988E-13
  -4.24499996E-03  -1.10440113E-13
  -4.23000008E-03  -1.12761105E-13
  -4.21500020E-03  -1.15123555E-13
  -4.19999985E-03  -1.17528058E-13
  -4.18499997E-03  -1.19975183E-13
  -4.17000009E-03  -1.22465541E-13
  -4.15500021E-03  -1.24999728E-13
  -4.13999986E-03  -1.27578327E-13
  -4.12499998E-03  -1.30201947E-13
  -4.11000010E-03  -1.32871158E-13
  -4.09500021E-03  -1.35586515E-13
  -4.07999987E-03  -1.38348602E-13
  -4.06499999E-03  -1.41157919E-13
  -4.05000011E-03  -1.44014995E-13
  -4.03500022E-03  -1.46920331E-13
  -4.01999988E-03  -1.49874430E-13
  -4.00500000E-03  -1.52877778E-13
  -3.99000011E-03  -1.55930851E-13
  -3.97500023E-03  -1.59034122E-13
  -3.95999989E-03  -1.62188066E-13
  -3.94500000E-03  -1.65393171E-13
  -3.93000012E-03  -1.68649979E-13
  -3.91499978E-03  -1.71958978E-13
  -3.89999989E-03  -1.75320804E-13
  -3.88500001E-03  -1.78736054E-13
  -3.86999990E-03  -1.82205433E-13
  -3.85500002E-03  -1.85729687E-13
  -3.83999990E-03  -1.89309641E-13
  -3.82500002E-03  -1.92946164E-13
  -3.80999991E-03  -1.96640284E-13
  -3.79500003E-03  -2.00393060E-13
  -3.77999991E-03  -2.04205684E-13
  -3.76500003E-03  -2.08079417E-13
  -3.74999992E-03  -2.12015640E-13
  -3.73500003E-03  -2.16015817E-13
  -3.71999992E-03  -2.20081535E-13
  -3.70500004E-03  -2.24214446E-13
  -3.68999992E-03  -2.28416298E-13
  -3.67500004E-03  -2.32688895E-13
  -3.65999993E-03  -2.37034134E-13
  -3.64500005E-03  -2.41453992E-13
  -3.62999993E-03  -2.45950477E-13
  -3.61500005E-03  -2.50525512E-13
  -3.59999994E-03  -2.55181184E-13
  -3.58500006E-03  -2.59919527E-13
  -3.56999994E-03  -2.64742546E-13
  -3.55500006E-03  -2.69652220E-13
  -3.53999995E-03  -2.74650528E-13
  -3.52500007E-03  -2.79739204E-13
  -3.50999995E-03  -2.84920118E-13
  -3.49500007E-03  -2.90194924E-13
  -3.47999996E-03  -2.95565222E-13
  -3.46500007E-03  -3.01032447E-13
  -3.44999996E-03  -3.06597954E-13
  -3.43500008E-03  -3.12262911E-13
  -3.41999996E-03  -3.18028454E-13
  -3.40500008E-03  -3.23895451E-13
  -3.38999997E-03  -3.29864798E-13
  -3.37500009E-03  -3.35937143E-13
  -3.35999997E-03  -3.42113030E-13
  -3.34500009E-03  -3.48392945E-13
  -3.32999998E-03  -3.54777243E-13
  -3.31500010E-03  -3.61266166E-13
  -3.29999998E-03  -3.67860012E-13
  -3.28500010E-03  -3.74558918E-13
  -3.26999999E-03  -3.81362964E-13
  -3.25500011E-03  -3.88272395E-13
  -3.23999999E-03  -3.95287346E-13
  -3.22500011E-03  -4.02408006E-13
  -3.21000000E-03  -4.09634620E-13
  -3.19500011E-03  -4.16967540E-13
  -3.18000000E-03  -4.24407200E-13
  -3.16499989E-03  -4.31954250E-13
  -3.15000000E-03  -4.39609286E-13
  -3.13499989E-03  -4.47373204E-13
  -3.12000001E-03  -4.55247114E-13
  -3.10499989E-03  -4.63232154E-13
  -3.09000001E-03  -4.71329735E-13
  -3.07499990E-03  -4.79541428E-13
  -3.06000002E-03  -4.87869023E-13
  -3.04499990E-03  -4.96314415E-13
  -3.03000002E-03  -5.04879775E-13
  -3.01499991E-03  -5.13567379E-13
  -3.00000003E-03  -5.22379828E-13
  -2.98499991E-03  -5.31319563E-13
  -2.97000003E-03  -5.40389402E-13
  -2.95499992E-03  -5.49592219E-13
  -2.94000003E-03  -5.58930886E-13
  -2.92499992E-03  -5.68408493E-13
  -2.91000004E-03  -5.78028077E-13
  -2.89499993E-03  -5.87792727E-13
  -2.88000004E-03  -5.97705533E-13
  -2.86499993E-03  -6.07769531E-13
  -2.85000005E-03  -6.17987703E-13
  -2.83499993E-03  -6.28363138E-13
  -2.82000005E-03  -6.38898602E-13
  -2.80499994E-03  -6.49596967E-13
  -2.79000006E-03  -6.60460727E-13
  -2.77499994E-03  -6.71492592E-13
  -2.76000006E-03  -6.82695003E-13
  -2.74499995E-03  -6.94070127E-13
  -2.73000007E-03  -7.05620078E-13
  -2.71499995E-03  -7.17346972E-13
  -2.70000007E-03  -7.29252596E-13
  -2.68499996E-03  -7.41338577E-13
  -2.67000007E-03  -7.53606596E-13
  -2.65499996E-03  -7.66058115E-13
  -2.64000008E-03  -7.78694492E-13
  -2.62499996E-03  -7.91517080E-13
  -2.61000008E-03  -8.04527181E-13
  -2.59499997E-03  -8.17725824E-13
  -2.58000009E-03  -8.31114203E-13
  -2.56499997E-03  -8.44693618E-13
  -2.55000009E-03  -8.58465100E-13
  -2.53499998E-03  -8.72429733E-13
  -2.52000010E-03  -8.86588871E-13
  -2.50499998E-03  -9.00943924E-13
  -2.49000010E-03  -9.15496086E-13
  -2.47499999E-03  -9.30246765E-13
  -2.46000011E-03  -9.45197479E-13
  -2.44499999E-03  -9.60350072E-13
  -2.43000011E-03  -9.75706278E-13
  -2.41500000E-03  -9.91267940E-13
  -2.40000011E-03  -1.00703712E-12
  -2.38500000E-03  -1.02301576E-12
  -2.36999989E-03  -1.03920648E-12
  -2.35500000E-03  -1.05561133E-12
  -2.33999989E-03  -1.07223280E-12
  -2.32500001E-03  -1.08907349E-12
  -2.30999989E-03  -1.10613602E-12
  -2.29500001E-03  -1.12342286E-12
  -2.27999990E-03  -1.14093717E-12
  -2.26500002E-03  -1.15868155E-12
  -2.24999990E-03  -1.17665860E-12
  -2.23500002E-03  -1.19487146E-12
  -2.21999991E-03  -1.21332284E-12
  -2.20500003E-03  -1.23201547E-12
  -2.18999991E-03  -1.25095236E-12
  -2.17500003E-03  -1.27013612E-12
  -2.15999992E-03  -1.28956958E-12