  -1.49999997E-02   0.00000000    
  -1.49849998E-02   0.00000000    
  -1.49699999E-02   0.00000000    
  -1.49550000E-02   0.00000000    
  -1.49400001E-02   0.00000000    
  -1.49250003E-02   0.00000000    
  -1.49100004E-02   0.00000000    
  -1.48949996E-02   0.00000000    
  -1.48799997E-02   0.00000000    
  -1.48649998E-02   0.00000000    
  -1.48499999E-02   0.00000000    
  -1.48350000E-02   0.00000000    
  -1.48200002E-02   0.00000000    
  -1.48050003E-02   0.00000000    
  -1.47900004E-02   0.00000000    
  -1.47749996E-02   0.00000000    
  -1.47599997E-02   0.00000000    
  -1.47449998E-02   0.00000000    
  -1.47299999E-02   0.00000000    
  -1.47150001E-02   0.00000000    
  -1.47000002E-02   0.00000000    
  -1.46850003E-02   0.00000000    
  -1.46700004E-02   0.00000000    
  -1.46549996E-02   0.00000000    
  -1.46399997E-02   0.00000000    
  -1.46249998E-02   0.00000000    
  -1.46100000E-02   0.00000000    
  -1.45950001E-02   0.00000000    
  -1.45800002E-02   0.00000000    
  -1.45650003E-02   0.00000000    
  -1.45500004E-02   0.00000000    
  -1.45349996E-02   0.00000000    
  -1.45199997E-02   0.00000000    
  -1.45049999E-02   0.00000000    
  -1.44900000E-02   0.00000000    
  -1.44750001E-02   0.00000000    
  -1.44600002E-02   0.00000000    
  -1.44450003E-02   0.00000000    
  -1.44300004E-02   0.00000000    
  -1.44149996E-02   0.00000000    
  -1.43999998E-02   0.00000000    
  -1.43849999E-02   0.00000000    
  -1.43700000E-02   0.00000000    
  -1.43550001E-02   0.00000000    
  -1.43400002E-02   0.00000000    
  -1.43250003E-02   0.00000000    
  -1.43100005E-02   0.00000000    
  -1.42949997E-02   0.00000000    
  -1.42799998E-02   0.00000000    
  -1.42649999E-02   0.00000000    
  -1.42500000E-02   0.00000000    
  -1.42350001E-02   0.00000000    
  -1.42200002E-02   0.00000000    
  -1.42050004E-02   0.00000000    
  -1.41899996E-02   0.00000000    
  -1.41749997E-02   0.00000000    
  -1.41599998E-02   0.00000000    
  -1.41449999E-02   0.00000000    
  -1.41300000E-02   0.00000000    
  -1.41150001E-02   0.00000000    
  -1.41000003E-02   0.00000000    
  -1.40850004E-02   0.00000000    
  -1.40699996E-02   0.00000000    
  -1.40549997E-02   0.00000000    
  -1.40399998E-02   0.00000000    
  -1.40249999E-02   0.00000000    
  -1.40100000E-02   0.00000000    
  -1.39950002E-02   0.00000000    
  -1.39800003E-02   0.00000000    
  -1.39650004E-02   0.00000000    
  -1.39499996E-02   0.00000000    
  -1.39349997E-02   0.00000000    
  -1.39199998E-02   0.00000000    
  -1.39049999E-02   0.00000000    
  -1.38900001E-02   0.00000000    
  -1.38750002E-02   0.00000000    
  -1.38600003E-02   0.00000000    
  -1.38450004E-02   0.00000000    
  -1.38299996E-02   0.00000000    
  -1.38149997E-02   0.00000000    
  -1.37999998E-02   0.00000000    
  -1.37850000E-02   0.00000000    
  -1.37700001E-02   0.00000000    
  -1.37550002E-02   0.00000000    
  -1.37400003E-02   0.00000000    
  -1.37250004E-02   0.00000000    
  -1.37099996E-02   0.00000000    
  -1.36949997E-02   0.00000000    
  -1.36799999E-02   0.00000000    
  -1.36650000E-02   0.00000000    
  -1.36500001E-02   0.00000000    
  -1.36350002E-02   0.00000000    
  -1.36200003E-02   0.00000000    
  -1.36050005E-02   0.00000000    
  -1.35899996E-02   0.00000000    
  -1.35749998E-02   0.00000000    
  -1.35599999E-02   0.00000000    
  -1.35450000E-02   0.00000000    
  -1.35300001E-02   0.00000000    
  -1.35150002E-02   0.00000000    
  -1.35000004E-02   0.00000000    
  -1.34849995E-02   0.00000000    
  -1.34699997E-02   0.00000000    
  -1.34549998E-02   0.00000000    
  -1.34399999E-02   0.00000000    
  -1.34250000E-02   0.00000000    
  -1.34100001E-02   0.00000000    
  -1.33950002E-02   0.00000000    
  -1.33800004E-02   0.00000000    
  -1.33649996E-02   0.00000000    
  -1.33499997E-02   0.00000000    
  -1.33349998E-02   0.00000000    
  -1.33199999E-02   0.00000000    
  -1.33050000E-02   0.00000000    
  -1.32900001E-02   0.00000000    
  -1.32750003E-02   0.00000000    
  -1.32600004E-02   0.00000000    
  -1.32449996E-02   0.00000000    
  -1.32299997E-02   0.00000000    
  -1.32149998E-02   0.00000000    
  -1.31999999E-02   0.00000000    
  -1.31850000E-02   0.00000000    
  -1.31700002E-02   0.00000000    
  -1.31550003E-02   0.00000000    
  -1.31400004E-02   0.00000000    
  -1.31249996E-02   0.00000000    
  -1.31099997E-02   0.00000000    
  -1.30949998E-02   0.00000000    
  -1.30799999E-02   0.00000000    
  -1.30650001E-02   0.00000000    
  -1.30500002E-02   0.00000000    
  -1.30350003E-02   0.00000000    
  -1.30200004E-02   0.00000000    
  -1.30049996E-02   0.00000000    
  -1.29899997E-02   0.00000000    
  -1.29749998E-02   0.00000000    
  -1.29600000E-02   0.00000000    
  -1.29450001E-02   0.00000000    
  -1.29300002E-02   0.00000000    
  -1.29150003E-02   0.00000000    
  -1.29000004E-02   0.00000000    
  -1.28849996E-02   0.00000000    
  -1.28699997E-02   0.00000000    
  -1.28549999E-02   0.00000000    
  -1.28400000E-02   0.00000000    
  -1.28250001E-02   0.00000000    
  -1.28100002E-02   0.00000000    
  -1.27950003E-02   0.00000000    
  -1.27800005E-02   0.00000000    
  -1.27649996E-02   0.00000000    
  -1.27499998E-02   0.00000000    
  -1.27349999E-02   0.00000000    
  -1.27200000E-02   0.00000000    
  -1.27050001E-02   0.00000000    
  -1.26900002E-02   0.00000000    
  -1.26750004E-02   0.00000000    
  -1.26599995E-02   0.00000000    
  -1.26449997E-02   0.00000000    
  -1.26299998E-02   0.00000000    
  -1.26149999E-02   0.00000000    
  -1.26000000E-02   0.00000000    
  -1.25850001E-02   0.00000000    
  -1.25700003E-02   0.00000000    
  -1.25550004E-02   0.00000000    
  -1.25399996E-02   0.00000000    
  -1.25249997E-02   0.00000000    
  -1.25099998E-02   0.00000000    
  -1.24949999E-02   0.00000000    
  -1.24800000E-02   0.00000000    
  -1.24650002E-02   0.00000000    
  -1.24500003E-02   0.00000000    
  -1.24350004E-02   0.00000000    
  -1.24199996E-02   0.00000000    
  -1.24049997E-02   0.00000000    
  -1.23899998E-02   0.00000000    
  -1.23749999E-02   0.00000000    
  -1.23600001E-02   0.00000000    
  -1.23450002E-02   0.00000000    
  -1.23300003E-02   0.00000000    
  -1.23150004E-02   0.00000000    
  -1.22999996E-02   0.00000000    
  -1.22849997E-02   0.00000000    
  -1.22699998E-02   0.00000000    
  -1.22550000E-02   0.00000000    
  -1.22400001E-02   0.00000000    
  -1.22250002E-02   0.00000000    
  -1.22100003E-02   0.00000000    
  -1.21950004E-02   0.00000000    
  -1.21799996E-02   0.00000000    
  -1.21649997E-02   0.00000000    
  -1.21499998E-02   0.00000000    
  -1.21350000E-02   0.00000000    
  -1.21200001E-02   0.00000000    
  -1.21050002E-02   0.00000000    
  -1.20900003E-02   0.00000000    
  -1.20750004E-02   0.00000000    
  -1.20599996E-02   0.00000000    
  -1.20449997E-02   0.00000000    
  -1.20299999E-02   0.00000000    
  -1.20150000E-02   0.00000000    
  -1.20000001E-02   0.00000000    
  -1.19850002E-02   0.00000000    
  -1.19700003E-02   0.00000000    
  -1.19550005E-02   0.00000000    
  -1.19399996E-02   0.00000000    
  -1.19249998E-02   0.00000000    
  -1.19099999E-02   0.00000000    
  -1.18950000E-02   0.00000000    
  -1.18800001E-02   0.00000000    
  -1.18650002E-02   0.00000000    
  -1.18500004E-02   0.00000000    
  -1.18349995E-02   0.00000000    
  -1.18199997E-02   0.00000000    
  -1.18049998E-02   0.00000000    
  -1.17899999E-02   0.00000000    
  -1.17750000E-02   0.00000000    
  -1.17600001E-02   0.00000000    
  -1.17450003E-02   0.00000000    
  -1.17300004E-02   0.00000000    
  -1.17149996E-02   0.00000000    
  -1.16999997E-02   0.00000000    
  -1.16849998E-02   0.00000000    
  -1.16699999E-02   0.00000000    
  -1.16550000E-02   0.00000000    
  -1.16400002E-02   0.00000000    
  -1.16250003E-02   0.00000000    
  -1.16100004E-02   0.00000000    
  -1.15949996E-02   0.00000000    
  -1.15799997E-02   0.00000000    
  -1.15649998E-02   0.00000000    
  -1.15499999E-02   0.00000000    
  -1.15350001E-02   0.00000000    
  -1.15200002E-02   0.00000000    
  -1.15050003E-02   0.00000000    
  -1.14900004E-02   0.00000000    
  -1.14749996E-02   0.00000000    
  -1.14599997E-02   0.00000000    
  -1.14449998E-02   0.00000000    
  -1.14300000E-02   0.00000000    
  -1.14150001E-02   0.00000000    
  -1.14000002E-02   0.00000000    
  -1.13850003E-02   0.00000000    
  -1.13700004E-02   0.00000000    
  -1.13549996E-02   0.00000000    
  -1.13399997E-02   0.00000000    
  -1.13249999E-02   0.00000000    
  -1.13100000E-02   0.00000000    
  -1.12950001E-02   0.00000000    
  -1.12800002E-02   0.00000000    
  -1.12650003E-02   0.00000000    
  -1.12500004E-02   0.00000000    
  -1.12349996E-02   0.00000000    
  -1.12199998E-02   0.00000000    
  -1.12049999E-02   0.00000000    
  -1.11900000E-02   0.00000000    
  -1.11750001E-02   0.00000000    
  -1.11600002E-02   0.00000000    
  -1.11450003E-02   0.00000000    
  -1.11300005E-02   0.00000000    
  -1.11149997E-02   0.00000000    
  -1.10999998E-02   0.00000000    
  -1.10849999E-02   0.00000000    
  -1.10700000E-02   0.00000000    
  -1.10550001E-02   0.00000000    
  -1.10400002E-02   0.00000000    
  -1.10250004E-02   0.00000000    
  -1.10099996E-02   0.00000000    
  -1.09949997E-02   0.00000000    
  -1.09799998E-02   0.00000000    
  -1.09649999E-02   0.00000000    
  -1.09500000E-02   0.00000000    
  -1.09350001E-02   0.00000000    
  -1.09200003E-02   0.00000000    
  -1.09050004E-02   0.00000000    
  -1.08899996E-02   0.00000000    
  -1.08749997E-02   0.00000000    
  -1.08599998E-02   0.00000000    
  -1.08449999E-02   0.00000000    
  -1.08300000E-02   0.00000000    
  -1.08150002E-02   0.00000000    
  -1.08000003E-02   0.00000000    
  -1.07850004E-02   0.00000000    
  -1.07699996E-02   0.00000000    
  -1.07549997E-02   0.00000000    
  -1.07399998E-02   0.00000000    
  -1.07249999E-02   0.00000000    
  -1.07100001E-02   0.00000000    
  -1.06950002E-02   0.00000000    
  -1.06800003E-02   0.00000000    
  -1.06650004E-02   0.00000000    
  -1.06499996E-02   0.00000000    
  -1.06349997E-02   0.00000000    
  -1.06199998E-02   0.00000000    
  -1.06050000E-02   0.00000000    
  -1.05900001E-02   0.00000000    
  -1.05750002E-02   0.00000000    
  -1.05600003E-02   1.17937441E-38
  -1.05450004E-02   2.47271670E-38
  -1.05299996E-02   3.81544677E-38
  -1.05149997E-02   5.12510844E-38
  -1.04999999E-02   6.30238917E-38
  -1.04850000E-02   6.30238917E-38
  -1.04700001E-02   6.30238917E-38
  -1.04550002E-02   6.30238917E-38
  -1.04400003E-02   6.30238917E-38
  -1.04250005E-02   5.12492852E-38
  -1.04099996E-02   3.14394146E-38
  -1.03949998E-02   0.00000000    
  -1.03799999E-02  -3.76100773E-38
  -1.03650000E-02  -8.40823135E-38
  -1.03500001E-02  -1.38542904E-37
  -1.03350002E-02  -1.99371880E-37
  -1.03200004E-02  -2.64118573E-37
  -1.03049995E-02  -3.29499976E-37
  -1.02899997E-02  -3.91426113E-37
  -1.02749998E-02  -4.45038581E-37
  -1.02599999E-02  -4.84876936E-37
  -1.02450000E-02  -5.05070252E-37
  -1.02300001E-02  -4.90697414E-37
  -1.02150002E-02  -4.36494158E-37
  -1.02000004E-02  -3.43129229E-37
  -1.01849996E-02  -2.06801946E-37
  -1.01699997E-02  -2.51141411E-38
  -1.01549998E-02   2.02524219E-37
  -1.01399999E-02   4.74431231E-37
  -1.01250000E-02   7.86124313E-37
  -1.01100001E-02   1.12993193E-36
  -1.00950003E-02   1.48430771E-36
  -1.00800004E-02   1.85267244E-36
  -1.00649996E-02   2.21880765E-36
  -1.00499997E-02   2.54640890E-36
  -1.00349998E-02   2.81687520E-36
  -1.00199999E-02   3.00363254E-36
  -1.00050000E-02   3.07910823E-36
  -9.99000017E-03   3.00958373E-36
  -9.97500028E-03   2.78065058E-36
  -9.96000040E-03   2.36275261E-36
  -9.94499959E-03   1.73699702E-36
  -9.92999971E-03   8.90940183E-37
  -9.91499983E-03  -1.79459653E-37
  -9.89999995E-03  -1.46795337E-36
  -9.88500006E-03  -2.95627520E-36
  -9.87000018E-03  -4.61281482E-36
  -9.85500030E-03  -6.39150875E-36
  -9.84000042E-03  -8.23126287E-36
  -9.82499961E-03  -1.00634140E-35
  -9.80999973E-03  -1.17822925E-35
  -9.79499985E-03  -1.32924577E-35
  -9.77999996E-03  -1.44808377E-35
  -9.76500008E-03  -1.52281462E-35
  -9.75000020E-03  -1.54132435E-35
  -9.73500032E-03  -1.49187180E-35
  -9.72000044E-03  -1.36371823E-35
  -9.70499963E-03  -1.14781944E-35
  -9.68999974E-03  -8.37560460E-36
  -9.67499986E-03  -4.29513898E-36
  -9.65999998E-03   7.58144889E-37
  -9.64500010E-03   6.73272640E-36
  -9.63000022E-03   1.35252377E-35
  -9.61500034E-03   2.09758113E-35
  -9.60000046E-03   2.88655638E-35
  -9.58499964E-03   3.69163370E-35
  -9.56999976E-03   4.47933717E-35
  -9.55499988E-03   5.21110938E-35
  -9.54000000E-03   5.84418196E-35
  -9.52500012E-03   6.33283060E-35
  -9.51000024E-03   6.62998099E-35
  -9.49500035E-03   6.68914659E-35
  -9.47999954E-03   6.46665501E-35
  -9.46499966E-03   5.92412246E-35
  -9.44999978E-03   5.03109286E-35
  -9.43499990E-03   3.76773777E-35
  -9.42000002E-03   2.12751018E-35
  -9.40500014E-03   1.19614012E-36
  -9.39000025E-03  -2.22883544E-35
  -9.37500037E-03  -4.87114355E-35
  -9.35999956E-03  -7.74001730E-35
  -9.34499968E-03  -1.07473049E-34
  -9.32999980E-03  -1.37846526E-34
  -9.31499992E-03  -1.67251896E-34
  -9.30000003E-03  -1.94263367E-34
  -9.28500015E-03  -2.17337610E-34
  -9.27000027E-03  -2.34864644E-34
  -9.25500039E-03  -2.45229611E-34
  -9.23999958E-03  -2.46884119E-34
  -9.22499970E-03  -2.38425565E-34
  -9.20999981E-03  -2.18681553E-34
  -9.19499993E-03  -1.86796751E-34
  -9.18000005E-03  -1.42318100E-34
  -9.16500017E-03  -8.52745100E-35
  -9.15000029E-03  -1.62464555E-35
  -9.13500041E-03   6.35793154E-35
  -9.11999959E-03   1.52374626E-34
  -9.10499971E-03   2.47658614E-34
  -9.08999983E-03   3.46314388E-34
  -9.07499995E-03   4.44636662E-34
  -9.06000007E-03   5.38412596E-34
  -9.04500019E-03   6.23036847E-34
  -9.03000031E-03   6.93660548E-34
  -9.01500043E-03   7.45371830E-34
  -8.99999961E-03   7.73404202E-34
  -8.98499973E-03   7.73366733E-34
  -8.96999985E-03   7.41488980E-34
  -8.95499997E-03   6.74870500E-34
  -8.94000009E-03   5.71725601E-34
  -8.92500021E-03   4.31610026E-34
  -8.91000032E-03   2.55617285E-34
  -8.89500044E-03   4.65316540E-35
  -8.87999963E-03  -1.91075137E-34
  -8.86499975E-03  -4.50815492E-34
  -8.84999987E-03  -7.24535688E-34
  -8.83499999E-03  -1.00245203E-33
  -8.82000010E-03  -1.27337813E-33
  -8.80500022E-03  -1.52504504E-33
  -8.79000034E-03  -1.74451076E-33
  -8.77500046E-03  -1.91865216E-33
  -8.75999965E-03  -2.03472672E-33
  -8.74499977E-03  -2.08098683E-33
  -8.72999988E-03  -2.04732508E-33
  -8.71500000E-03  -1.92592388E-33
  -8.70000012E-03  -1.71188106E-33
  -8.68500024E-03  -1.40377682E-33
  -8.67000036E-03  -1.00415080E-33
  -8.65499955E-03  -5.19853882E-34
  -8.63999967E-03   3.77560836E-35
  -8.62499978E-03   6.52803349E-34
  -8.60999990E-03   1.30509178E-33
  -8.59500002E-03   1.97052673E-33
  -8.58000014E-03   2.62176768E-33
  -8.56500026E-03   3.22911200E-33
  -8.55000038E-03   3.76159111E-33
  -8.53499956E-03   4.18825698E-33
  -8.51999968E-03   4.47961979E-33
  -8.50499980E-03   4.60918314E-33
  -8.48999992E-03   4.55502004E-33
  -8.47500004E-03   4.30131456E-33
  -8.46000016E-03   3.83979234E-33
  -8.44500028E-03   3.17095956E-33
  -8.43000039E-03   2.30506232E-33
  -8.41499958E-03   1.26269087E-33
  -8.39999970E-03   7.49525504E-35
  -8.38499982E-03  -1.21684466E-33
  -8.36999994E-03  -2.56204394E-33
  -8.35500006E-03  -3.90204982E-33
  -8.34000017E-03  -5.17229563E-33
  -8.32500029E-03  -6.30473971E-33
  -8.31000041E-03  -7.23083016E-33
  -8.29499960E-03  -7.88485758E-33
  -8.27999972E-03  -8.20756384E-33
  -8.26499984E-03  -8.14987278E-33
  -8.24999996E-03  -7.67656586E-33
  -8.23500007E-03  -6.76971458E-33
  -8.22000019E-03  -5.43166846E-33
  -8.20500031E-03  -3.68739243E-33
  -8.19000043E-03  -1.58595861E-33
  -8.17499962E-03   7.98998112E-34
  -8.15999974E-03   3.37000492E-33
  -8.14499985E-03   6.00777934E-33
  -8.12999997E-03   8.57462297E-33
  -8.11500009E-03   1.09191891E-32
  -8.10000021E-03   1.28825629E-32
  -8.08500033E-03   1.43055238E-32
  -8.07000045E-03   1.50367753E-32
  -8.05499963E-03   1.49418659E-32
  -8.03999975E-03   1.39124385E-32
  -8.02499987E-03   1.18754038E-32
  -8.00999999E-03   8.80155877E-33
  -7.99500011E-03   4.71315158E-33
  -7.98000023E-03  -3.10116394E-34
  -7.96500035E-03  -6.12715998E-33
  -7.95000046E-03  -1.25341258E-32
  -7.93499965E-03  -1.92659527E-32
  -7.91999977E-03  -2.60012121E-32
  -7.90499989E-03  -3.23703961E-32
  -7.89000001E-03  -3.79677740E-32
  -7.87500013E-03  -4.23666296E-32
  -7.86000025E-03  -4.51376871E-32
  -7.84500036E-03  -4.58701817E-32
  -7.82999955E-03  -4.41949583E-32
  -7.81499967E-03  -3.98087598E-32
  -7.79999979E-03  -3.24986543E-32
  -7.78499991E-03  -2.21655079E-32
  -7.77000003E-03  -8.84522471E-33
  -7.75500014E-03   7.27356231E-33
  -7.73999980E-03   2.58366341E-32
  -7.72499992E-03   4.63174309E-32
  -7.71000003E-03   6.80175179E-32
  -7.69500015E-03   9.00752286E-32
  -7.67999981E-03   1.11483132E-31
  -7.66499992E-03   1.31114687E-31
  -7.65000004E-03   1.47760087E-31
  -7.63500016E-03   1.60170827E-31
  -7.61999981E-03   1.67112027E-31
  -7.60499993E-03   1.67421205E-31
  -7.59000005E-03   1.60071650E-31
  -7.57500017E-03   1.44238012E-31
  -7.55999982E-03   1.19361518E-31
  -7.54499994E-03   8.52117853E-32
  -7.53000006E-03   4.19419852E-32
  -7.51500018E-03  -9.86589323E-33
  -7.49999983E-03  -6.91690616E-32
  -7.48499995E-03  -1.34448248E-31
  -7.47000007E-03  -2.03711079E-31
  -7.45500019E-03  -2.74516840E-31
  -7.43999984E-03  -3.44023962E-31
  -7.42499996E-03  -4.09061314E-31
  -7.41000008E-03  -4.66222642E-31
  -7.39500020E-03  -5.11983273E-31
  -7.37999985E-03  -5.42836708E-31
  -7.36499997E-03  -5.55447036E-31
  -7.35000009E-03  -5.46813312E-31
  -7.33500021E-03  -5.14439492E-31
  -7.31999986E-03  -4.56503654E-31
  -7.30499998E-03  -3.72019206E-31
  -7.29000010E-03  -2.60980011E-31
  -7.27500021E-03  -1.24481443E-31
  -7.25999987E-03   3.51904834E-32
  -7.24499999E-03   2.14509522E-31
  -7.23000010E-03   4.08705797E-31
  -7.21500022E-03   6.11813918E-31
  -7.19999988E-03   8.16776545E-31
  -7.18499999E-03   1.01560540E-30
  -7.17000011E-03   1.19959913E-30
  -7.15500023E-03   1.35961579E-30
  -7.13999989E-03   1.48639389E-30
  -7.12500000E-03   1.57091504E-30
  -7.11000012E-03   1.60479711E-30
  -7.09499978E-03   1.58070456E-30
  -7.07999989E-03   1.49276178E-30
  -7.06500001E-03   1.33695217E-30
  -7.05000013E-03   1.11148511E-30
  -7.03499978E-03   8.17112830E-31
  -7.01999990E-03   4.57377940E-31
  -7.00500002E-03   3.87756149E-32
  -6.99000014E-03  -4.29186294E-31
  -6.97499979E-03  -9.34041134E-31
  -6.95999991E-03  -1.46054195E-30
  -6.94500003E-03  -1.99096845E-30
  -6.93000015E-03  -2.50556489E-30
  -6.91499980E-03  -2.98310242E-30
  -6.89999992E-03  -3.40155753E-30
  -6.88500004E-03  -3.73888905E-30
  -6.87000016E-03  -3.97389313E-30
  -6.85499981E-03  -4.08710997E-30
  -6.83999993E-03  -4.06175089E-30
  -6.82500005E-03  -3.88460897E-30
  -6.81000017E-03  -3.54691822E-30
  -6.79499982E-03  -3.04512018E-30
  -6.77999994E-03  -2.38150153E-30
  -6.76500006E-03  -1.56466141E-30
  -6.75000018E-03  -6.09779231E-31
  -6.73499983E-03   4.61349559E-31
  -6.71999995E-03   1.62053012E-30
  -6.70500007E-03   2.83365176E-30
  -6.69000018E-03   4.06144282E-30
  -6.67499984E-03   5.26049032E-30
  -6.65999996E-03   6.38451118E-30
  -6.64500007E-03   7.38583977E-30
  -6.63000019E-03   8.21710198E-30
  -6.61499985E-03   8.83301363E-30
  -6.59999996E-03   9.19225899E-30
  -6.58500008E-03   9.25936787E-30
  -6.57000020E-03   9.00653239E-30
  -6.55499985E-03   8.41527491E-30
  -6.53999997E-03   7.47789998E-30
  -6.52500009E-03   6.19865744E-30
  -6.51000021E-03   4.59454061E-30
  -6.49499986E-03   2.69567092E-30
  -6.47999998E-03   5.45216379E-31
  -6.46500010E-03  -1.80118705E-30
  -6.45000022E-03  -4.27652406E-30
  -6.43499987E-03  -6.80399603E-30
  -6.41999999E-03  -9.29910071E-30
  -6.40500011E-03  -1.16721488E-29
  -6.39000023E-03  -1.38311547E-29
  -6.37499988E-03  -1.56850142E-29
  -6.36000000E-03  -1.71468718E-29
  -6.34500012E-03  -1.81375596E-29
  -6.32999977E-03  -1.85889870E-29
  -6.31499989E-03  -1.84473409E-29
  -6.30000001E-03  -1.76759669E-29
  -6.28500013E-03  -1.62578098E-29
  -6.26999978E-03  -1.41972860E-29
  -6.25499990E-03  -1.15214787E-29
  -6.24000002E-03  -8.28058545E-30
  -6.22500014E-03  -4.54753776E-30
  -6.20999979E-03  -4.16777964E-31
  -6.19499991E-03   3.99782319E-30
  -6.18000003E-03   8.56586758E-30
  -6.16500014E-03   1.31440927E-29
  -6.14999980E-03   1.75806890E-29
  -6.13499992E-03   2.17201640E-29
  -6.12000003E-03   2.54085741E-29
  -6.10500015E-03   2.84989634E-29
  -6.08999981E-03   3.08568253E-29
  -6.07499992E-03   3.23653520E-29
  -6.06000004E-03   3.29303115E-29
  -6.04500016E-03   3.24843294E-29
  -6.02999981E-03   3.09903855E-29
  -6.01499993E-03   2.84443904E-29
  -6.00000005E-03   2.48766954E-29
  -5.98500017E-03   2.03524407E-29
  -5.96999982E-03   1.49707018E-29
  -5.95499994E-03   8.86240964E-30
  -5.94000006E-03   2.18709225E-30
  -5.92500018E-03  -4.87147729E-30
  -5.90999983E-03  -1.21105981E-29
  -5.89499995E-03  -1.93147587E-29
  -5.88000007E-03  -2.62623448E-29
  -5.86500019E-03  -3.27327051E-29
  -5.84999984E-03  -3.85133206E-29
  -5.83499996E-03  -4.34068408E-29
  -5.82000008E-03  -4.72377050E-29
  -5.80500020E-03  -4.98581073E-29
  -5.78999985E-03  -5.11531086E-29
  -5.77499997E-03  -5.10446787E-29
  -5.76000009E-03  -4.94945429E-29
  -5.74500021E-03  -4.65057253E-29
  -5.72999986E-03  -4.21227270E-29
  -5.71499998E-03  -3.64303823E-29
  -5.70000010E-03  -2.95514089E-29
  -5.68500021E-03  -2.16428048E-29
  -5.66999987E-03  -1.28912211E-29
  -5.65499999E-03  -3.50750625E-30
  -5.64000010E-03   6.27933208E-30
  -5.62500022E-03   1.62285327E-29
  -5.60999988E-03   2.60940938E-29
  -5.59500000E-03   3.56311484E-29
  -5.58000011E-03   4.46020097E-29
  -5.56500023E-03   5.27816388E-29
  -5.54999989E-03   5.99624446E-29
  -5.53500000E-03   6.59582798E-29
  -5.52000012E-03   7.06075408E-29
  -5.50499978E-03   7.37754609E-29
  -5.48999989E-03   7.53555359E-29
  -5.47500001E-03   7.52702834E-29
  -5.46000013E-03   7.34713746E-29
  -5.44499978E-03   6.99393515E-29
  -5.42999990E-03   6.46831276E-29
  -5.41500002E-03   5.77393797E-29
  -5.40000014E-03   4.91720970E-29
  -5.38499979E-03   3.90723098E-29
  -5.36999991E-03   2.75581978E-29
  -5.35500003E-03   1.47755630E-29
  -5.34000015E-03   8.98656215E-31
  -5.32499980E-03  -1.38687253E-29
  -5.30999992E-03  -2.92920313E-29
  -5.29500004E-03  -4.51048700E-29
  -5.28000016E-03  -6.10083148E-29
  -5.26499981E-03  -7.66709461E-29
  -5.24999993E-03  -9.17299368E-29
  -5.23500005E-03  -1.05793607E-28
  -5.22000017E-03  -1.18445739E-28
  -5.20499982E-03  -1.29251891E-28
  -5.18999994E-03  -1.37768016E-28
  -5.17500006E-03  -1.43551463E-28
  -5.16000018E-03  -1.46174303E-28
  -5.14499983E-03  -1.45238879E-28
  -5.12999995E-03  -1.40395237E-28
  -5.11500007E-03  -1.31359978E-28
  -5.10000018E-03  -1.17935897E-28
  -5.08499984E-03  -1.00031646E-28
  -5.06999996E-03  -7.76804945E-29
  -5.05500007E-03  -5.10571672E-29
  -5.04000019E-03  -2.04917577E-29
  -5.02499985E-03   1.35204074E-29
  -5.00999996E-03   5.03139749E-29
  -4.99500008E-03   8.90547659E-29
  -4.98000020E-03   1.28747767E-28
  -4.96499985E-03   1.68252490E-28
  -4.94999997E-03   2.06306025E-28
  -4.93500009E-03   2.41553721E-28
  -4.92000021E-03   2.72587337E-28
  -4.90499986E-03   2.97989775E-28
  -4.88999998E-03   3.16385392E-28
  -4.87500010E-03   3.26494598E-28
  -4.86000022E-03   3.27190797E-28
  -4.84499987E-03   3.17557609E-28
  -4.82999999E-03   2.96944357E-28
  -4.81500011E-03   2.65016988E-28
  -4.80000023E-03   2.21802226E-28
  -4.78499988E-03   1.67722402E-28
  -4.77000000E-03   1.03618582E-28
  -4.75500012E-03   3.07600473E-29
  -4.73999977E-03  -4.91616248E-29
  -4.72499989E-03  -1.34055040E-28
  -4.71000001E-03  -2.21468655E-28
  -4.69500013E-03  -3.08647703E-28
  -4.67999978E-03  -3.92607536E-28
  -4.66499990E-03  -4.70222200E-28
  -4.65000002E-03  -5.38325634E-28
  -4.63500014E-03  -5.93823328E-28
  -4.61999979E-03  -6.33810304E-28
  -4.60499991E-03  -6.55691853E-28
  -4.59000003E-03  -6.57302412E-28
  -4.57500014E-03  -6.37017940E-28
  -4.55999980E-03  -5.93856984E-28
  -4.54499992E-03  -5.27565801E-28
  -4.53000003E-03  -4.38683075E-28
  -4.51500015E-03  -3.28580067E-28
  -4.49999981E-03  -1.99473512E-28
  -4.48499992E-03  -5.44079964E-29
  -4.47000004E-03   1.02792900E-28
  -4.45500016E-03   2.67607629E-28
  -4.43999982E-03   4.34928667E-28
  -4.42499993E-03   5.99203413E-28
  -4.41000005E-03   7.54601067E-28
  -4.39500017E-03   8.95200453E-28
  -4.37999982E-03   1.01519369E-27
  -4.36499994E-03   1.10909895E-27
  -4.35000006E-03   1.17197536E-27
  -4.33500018E-03   1.19963172E-27
  -4.31999983E-03   1.18882205E-27
  -4.30499995E-03   1.13741888E-27
  -4.29000007E-03   1.04455796E-27
  -4.27500019E-03   9.10746367E-28
  -4.25999984E-03   7.37928725E-28
  -4.24499996E-03   5.29506464E-28
  -4.23000008E-03   2.90306952E-28
  -4.21500020E-03   2.65006877E-29
  -4.19999985E-03  -2.54533309E-28
  -4.18499997E-03  -5.44391736E-28
  -4.17000009E-03  -8.33877495E-28
  -4.15500021E-03  -1.11326984E-27
  -4.13999986E-03  -1.37262809E-27
  -4.12499998E-03  -1.60211853E-27
  -4.11000010E-03  -1.79235592E-27
  -4.09500021E-03  -1.93474589E-27
  -4.07999987E-03  -2.02182007E-27
  -4.06499999E-03  -2.04754895E-27
  -4.05000011E-03  -2.00762057E-27
  -4.03500022E-03  -1.89967721E-27
  -4.01999988E-03  -1.72349603E-27
  -4.00500000E-03  -1.48110676E-27
  -3.99000011E-03  -1.17683959E-27
  -3.97500023E-03  -8.17297646E-28
  -3.95999989E-03  -4.11252391E-28
  -3.94500000E-03   3.05388873E-29
  -3.93000012E-03   4.95590116E-28
  -3.91499978E-03   9.70013298E-28
  -3.89999989E-03   1.43890685E-27
  -3.88500001E-03   1.88679601E-27
  -3.86999990E-03   2.29811167E-27
  -3.85500002E-03   2.65769550E-27
  -3.83999990E-03   2.95131315E-27
  -3.82500002E-03   3.16616200E-27
  -3.80999991E-03   3.29135342E-27
  -3.79500003E-03   3.31835726E-27
  -3.77999991E-03   3.24138555E-27
  -3.76500003E-03   3.05770903E-27
  -3.74999992E-03   2.76788585E-27
  -3.73500003E-03   2.37589516E-27
  -3.71999992E-03   1.88916799E-27
  -3.70500004E-03   1.31850724E-27
  -3.68999992E-03   6.77897440E-28
  -3.67500004E-03  -1.57960290E-29
  -3.65999993E-03  -7.43232254E-28
  -3.64500005E-03  -1.48309635E-27
  -3.62999993E-03  -2.21268570E-27
  -3.61500005E-03  -2.90856598E-27
  -3.59999994E-03  -3.54727753E-27
  -3.58500006E-03  -4.10607417E-27
  -3.56999994E-03  -4.56367358E-27
  -3.55500006E-03  -4.90098981E-27
  -3.53999995E-03  -5.10183310E-27
  -3.52500007E-03  -5.15354740E-27
  -3.50999995E-03  -5.04756541E-27
  -3.49500007E-03  -4.77985999E-27
  -3.47999996E-03  -4.35127394E-27
  -3.46500007E-03  -3.76771331E-27
  -3.44999996E-03  -3.04018750E-27
  -3.43500008E-03  -2.18469770E-27
  -3.41999996E-03  -1.22196220E-27
  -3.40500008E-03  -1.76982478E-28
  -3.38999997E-03   9.21541686E-28
  -3.37500009E-03   2.04193795E-27
  -3.35999997E-03   3.15041251E-27
  -3.34500009E-03   4.21200378E-27
  -3.32999998E-03   5.19161572E-27
  -3.31500010E-03   6.05510102E-27
  -3.29999998E-03   6.77036482E-27
  -3.28500010E-03   7.30845193E-27
  -3.26999999E-03   7.64458911E-27
  -3.25500011E-03   7.75914265E-27
  -3.23999999E-03   7.63846003E-27
  -3.22500011E-03   7.27556629E-27
  -3.21000000E-03   6.67068331E-27
  -3.19500011E-03   5.83155178E-27
  -3.18000000E-03   4.77353292E-27
  -3.16499989E-03   3.51947943E-27
  -3.15000000E-03   2.09936976E-27
  -3.13499989E-03   5.49702295E-28
  -3.12000001E-03  -1.08733816E-27
  -3.10499989E-03  -2.76492993E-27
  -3.09000001E-03  -4.43285479E-27
  -3.07499990E-03  -6.03890087E-27
  -3.06000002E-03  -7.53039379E-27
  -3.04499990E-03  -8.85580799E-27
  -3.03000002E-03  -9.96642091E-27
  -3.01499991E-03  -1.08179516E-26
  -3.00000003E-03  -1.13721395E-26
  -2.98499991E-03  -1.15982074E-26
  -2.97000003E-03  -1.14741567E-26
  -2.95499992E-03  -1.09878525E-26
  -2.94000003E-03  -1.01378472E-26
  -2.92499992E-03  -8.93390984E-27
  -2.91000004E-03  -7.39723345E-27
  -2.89499993E-03  -5.56029071E-27
  -2.88000004E-03  -3.46633532E-27
  -2.86499993E-03  -1.16854470E-27
  -2.85000005E-03   1.27118647E-27
  -2.83499993E-03   3.78377865E-27
  -2.82000005E-03   6.29479147E-27
  -2.80499994E-03   8.72649951E-27
  -2.79000006E-03   1.10001569E-26
  -2.77499994E-03   1.30384040E-26
  -2.76000006E-03   1.47677288E-26
  -2.74499995E-03   1.61209211E-26
  -2.73000007E-03   1.70394387E-26
  -2.71499995E-03   1.74756033E-26
  -2.70000007E-03   1.73945617E-26
  -2.68499996E-03   1.67759206E-26
  -2.67000007E-03   1.56150147E-26
  -2.65499996E-03   1.39237247E-26
  -2.64000008E-03   1.17308262E-26
  -2.62499996E-03   9.08181972E-27
  -2.61000008E-03   6.03823527E-27
  -2.59499997E-03   2.67640341E-27
  -2.58000009E-03  -9.14284974E-28
  -2.56499997E-03  -4.63360102E-27
  -2.55000009E-03  -8.37313066E-27
  -2.53499998E-03  -1.20192966E-26
  -2.52000010E-03  -1.54566632E-26
  -2.50499998E-03  -1.85714405E-26
  -2.49000010E-03  -2.12550867E-26
  -2.47499999E-03  -2.34078820E-26
  -2.46000011E-03  -2.49423844E-26
  -2.44499999E-03  -2.57866504E-26
  -2.43000011E-03  -2.58870807E-26
  -2.41500000E-03  -2.52108374E-26
  -2.40000011E-03  -2.37476946E-26
  -2.38500000E-03  -2.15112601E-26
  -2.36999989E-03  -1.85395055E-26
  -2.35500000E-03  -1.48945598E-26
  -2.33999989E-03  -1.06617379E-26
  -2.32500001E-03  -5.94780631E-27
  -2.30999989E-03  -8.78513233E-28
  -2.29500001E-03   4.40457097E-27
  -2.27999990E-03   9.74783326E-27
  -2.26500002E-03   1.49899241E-26
  -2.24999990E-03   1.99664701E-26
  -2.23500002E-03   2.45150667E-26
  -2.21999991E-03   2.84804117E-26
  -2.20500003E-03   3.17194037E-26
  -2.18999991E-03   3.41060746E-26
  -2.17500003E-03   3.55361747E-26
  -2.15999992E-03   3.59312491E-26