  -1.49999997E-02   0.00000000    
  -1.49849998E-02   0.00000000    
  -1.49699999E-02   0.00000000    
  -1.49550000E-02   0.00000000    
  -1.49400001E-02   0.00000000    
  -1.49250003E-02   0.00000000    
  -1.49100004E-02   0.00000000    
  -1.48949996E-02   0.00000000    
  -1.48799997E-02   0.00000000    
  -1.48649998E-02   0.00000000    
  -1.48499999E-02   0.00000000    
  -1.48350000E-02   0.00000000    
  -1.48200002E-02   0.00000000    
  -1.48050003E-02   0.00000000    
  -1.47900004E-02   0.00000000    
  -1.47749996E-02   0.00000000    
  -1.47599997E-02   0.00000000    
  -1.47449998E-02   0.00000000    
  -1.47299999E-02   0.00000000    
  -1.47150001E-02   0.00000000    
  -1.47000002E-02   0.00000000    
  -1.46850003E-02   0.00000000    
  -1.46700004E-02   0.00000000    
  -1.46549996E-02   0.00000000    
  -1.46399997E-02   0.00000000    
  -1.46249998E-02   0.00000000    
  -1.46100000E-02   0.00000000    
  -1.45950001E-02   0.00000000    
  -1.45800002E-02   0.00000000    
  -1.45650003E-02   0.00000000    
  -1.45500004E-02   0.00000000    
  -1.45349996E-02   0.00000000    
  -1.45199997E-02   0.00000000    
  -1.45049999E-02   0.00000000    
  -1.44900000E-02   0.00000000    
  -1.44750001E-02   0.00000000    
  -1.44600002E-02   0.00000000    
  -1.44450003E-02   0.00000000    
  -1.44300004E-02   0.00000000    
  -1.44149996E-02   0.00000000    
  -1.43999998E-02   0.00000000    
  -1.43849999E-02   0.00000000    
  -1.43700000E-02   0.00000000    
  -1.43550001E-02   0.00000000    
  -1.43400002E-02   0.00000000    
  -1.43250003E-02   0.00000000    
  -1.43100005E-02   0.00000000    
  -1.42949997E-02   0.00000000    
  -1.42799998E-02   0.00000000    
  -1.42649999E-02   0.00000000    
  -1.42500000E-02   0.00000000    
  -1.42350001E-02   0.00000000    
  -1.42200002E-02   0.00000000    
  -1.42050004E-02   0.00000000    
  -1.41899996E-02   0.00000000    
  -1.41749997E-02   0.00000000    
  -1.41599998E-02   0.00000000    
  -1.41449999E-02   0.00000000    
  -1.41300000E-02   0.00000000    
  -1.41150001E-02   0.00000000    
  -1.41000003E-02   0.00000000    
  -1.40850004E-02   0.00000000    
  -1.40699996E-02   0.00000000    
  -1.40549997E-02   0.00000000    
  -1.40399998E-02   0.00000000    
  -1.40249999E-02   0.00000000    
  -1.40100000E-02   0.00000000    
  -1.39950002E-02   0.00000000    
  -1.39800003E-02   0.00000000    
  -1.39650004E-02   0.00000000    
  -1.39499996E-02   0.00000000    
  -1.39349997E-02   0.00000000    
  -1.39199998E-02   0.00000000    
  -1.39049999E-02   0.00000000    
  -1.38900001E-02   0.00000000    
  -1.38750002E-02   0.00000000    
  -1.38600003E-02   0.00000000    
  -1.38450004E-02   0.00000000    
  -1.38299996E-02   0.00000000    
  -1.38149997E-02   0.00000000    
  -1.37999998E-02   0.00000000    
  -1.37850000E-02   0.00000000    
  -1.37700001E-02   0.00000000    
  -1.37550002E-02   0.00000000    
  -1.37400003E-02   0.00000000    
  -1.37250004E-02   0.00000000    
  -1.37099996E-02   0.00000000    
  -1.36949997E-02   0.00000000    
  -1.36799999E-02   0.00000000    
  -1.36650000E-02   0.00000000    
  -1.36500001E-02   0.00000000    
  -1.36350002E-02   0.00000000    
  -1.36200003E-02   0.00000000    
  -1.36050005E-02   0.00000000    
  -1.35899996E-02   0.00000000    
  -1.35749998E-02   0.00000000    
  -1.35599999E-02   0.00000000    
  -1.35450000E-02   0.00000000    
  -1.35300001E-02   0.00000000    
  -1.35150002E-02   0.00000000    
  -1.35000004E-02   0.00000000    
  -1.34849995E-02   0.00000000    
  -1.34699997E-02   0.00000000    
  -1.34549998E-02   0.00000000    
  -1.34399999E-02   0.00000000    
  -1.34250000E-02   0.00000000    
  -1.34100001E-02   0.00000000    
  -1.33950002E-02   0.00000000    
  -1.33800004E-02   0.00000000    
  -1.33649996E-02   0.00000000    
  -1.33499997E-02   0.00000000    
  -1.33349998E-02   0.00000000    
  -1.33199999E-02   0.00000000    
  -1.33050000E-02   0.00000000    
  -1.32900001E-02   0.00000000    
  -1.32750003E-02   0.00000000    
  -1.32600004E-02   0.00000000    
  -1.32449996E-02   0.00000000    
  -1.32299997E-02   0.00000000    
  -1.32149998E-02   0.00000000    
  -1.31999999E-02   0.00000000    
  -1.31850000E-02   0.00000000    
  -1.31700002E-02   0.00000000    
  -1.31550003E-02   0.00000000    
  -1.31400004E-02   0.00000000    
  -1.31249996E-02   0.00000000    
  -1.31099997E-02   0.00000000    
  -1.30949998E-02   0.00000000    
  -1.30799999E-02   0.00000000    
  -1.30650001E-02   0.00000000    
  -1.30500002E-02   0.00000000    
  -1.30350003E-02   0.00000000    
  -1.30200004E-02   0.00000000    
  -1.30049996E-02   0.00000000    
  -1.29899997E-02   0.00000000    
  -1.29749998E-02   0.00000000    
  -1.29600000E-02   0.00000000    
  -1.29450001E-02   0.00000000    
  -1.29300002E-02   0.00000000    
  -1.29150003E-02   0.00000000    
  -1.29000004E-02   0.00000000    
  -1.28849996E-02   0.00000000    
  -1.28699997E-02   0.00000000    
  -1.28549999E-02   0.00000000    
  -1.28400000E-02   0.00000000    
  -1.28250001E-02   0.00000000    
  -1.28100002E-02   0.00000000    
  -1.27950003E-02   0.00000000    
  -1.27800005E-02   0.00000000    
  -1.27649996E-02   0.00000000    
  -1.27499998E-02   0.00000000    
  -1.27349999E-02   0.00000000    
  -1.27200000E-02   0.00000000    
  -1.27050001E-02   0.00000000    
  -1.26900002E-02   0.00000000    
  -1.26750004E-02   0.00000000    
  -1.26599995E-02   0.00000000    
  -1.26449997E-02   0.00000000    
  -1.26299998E-02   0.00000000    
  -1.26149999E-02   0.00000000    
  -1.26000000E-02   0.00000000    
  -1.25850001E-02   0.00000000    
  -1.25700003E-02   0.00000000    
  -1.25550004E-02   0.00000000    
  -1.25399996E-02   0.00000000    
  -1.25249997E-02   0.00000000    
  -1.25099998E-02   0.00000000    
  -1.24949999E-02   0.00000000    
  -1.24800000E-02   0.00000000    
  -1.24650002E-02   0.00000000    
  -1.24500003E-02   0.00000000    
  -1.24350004E-02   0.00000000    
  -1.24199996E-02   0.00000000    
  -1.24049997E-02   0.00000000    
  -1.23899998E-02   0.00000000    
  -1.23749999E-02   0.00000000    
  -1.23600001E-02   0.00000000    
  -1.23450002E-02   0.00000000    
  -1.23300003E-02   0.00000000    
  -1.23150004E-02   0.00000000    
  -1.22999996E-02   0.00000000    
  -1.22849997E-02   0.00000000    
  -1.22699998E-02   0.00000000    
  -1.22550000E-02   0.00000000    
  -1.22400001E-02   0.00000000    
  -1.22250002E-02   0.00000000    
  -1.22100003E-02   0.00000000    
  -1.21950004E-02   0.00000000    
  -1.21799996E-02   0.00000000    
  -1.21649997E-02   0.00000000    
  -1.21499998E-02   0.00000000    
  -1.21350000E-02   0.00000000    
  -1.21200001E-02   0.00000000    
  -1.21050002E-02   0.00000000    
  -1.20900003E-02   0.00000000    
  -1.20750004E-02   0.00000000    
  -1.20599996E-02   0.00000000    
  -1.20449997E-02   0.00000000    
  -1.20299999E-02   0.00000000    
  -1.20150000E-02   0.00000000    
  -1.20000001E-02   0.00000000    
  -1.19850002E-02   0.00000000    
  -1.19700003E-02   0.00000000    
  -1.19550005E-02   0.00000000    
  -1.19399996E-02   0.00000000    
  -1.19249998E-02   0.00000000    
  -1.19099999E-02   0.00000000    
  -1.18950000E-02   0.00000000    
  -1.18800001E-02   0.00000000    
  -1.18650002E-02   0.00000000    
  -1.18500004E-02   0.00000000    
  -1.18349995E-02   0.00000000    
  -1.18199997E-02   0.00000000    
  -1.18049998E-02   0.00000000    
  -1.17899999E-02   0.00000000    
  -1.17750000E-02   0.00000000    
  -1.17600001E-02   0.00000000    
  -1.17450003E-02   0.00000000    
  -1.17300004E-02   0.00000000    
  -1.17149996E-02   0.00000000    
  -1.16999997E-02   0.00000000    
  -1.16849998E-02   0.00000000    
  -1.16699999E-02   0.00000000    
  -1.16550000E-02   0.00000000    
  -1.16400002E-02   0.00000000    
  -1.16250003E-02   0.00000000    
  -1.16100004E-02   0.00000000    
  -1.15949996E-02   0.00000000    
  -1.15799997E-02   0.00000000    
  -1.15649998E-02   0.00000000    
  -1.15499999E-02   0.00000000    
  -1.15350001E-02   0.00000000    
  -1.15200002E-02   0.00000000    
  -1.15050003E-02   0.00000000    
  -1.14900004E-02   0.00000000    
  -1.14749996E-02   0.00000000    
  -1.14599997E-02   0.00000000    
  -1.14449998E-02   0.00000000    
  -1.14300000E-02   0.00000000    
  -1.14150001E-02  -2.77229928E-33
  -1.14000002E-02  -4.41891322E-33
  -1.13850003E-02  -6.15023971E-33
  -1.13700004E-02  -7.86647799E-33
  -1.13549996E-02  -9.44273143E-33
  -1.13399997E-02  -1.07305266E-32
  -1.13249999E-02  -1.07305266E-32
  -1.13100000E-02  -1.07305266E-32
  -1.12950001E-02  -1.07305266E-32
  -1.12800002E-02  -9.11699974E-33
  -1.12650003E-02  -6.32327431E-33
  -1.12500004E-02   0.00000000    
  -1.12349996E-02   3.35048987E-33
  -1.12199998E-02   1.03691584E-32
  -1.12049999E-02   2.11949404E-32
  -1.11900000E-02   3.58463535E-32
  -1.11750001E-02   5.02897172E-32
  -1.11600002E-02   6.16992946E-32
  -1.11450003E-02   7.32624738E-32
  -1.11300005E-02   8.43534452E-32
  -1.11149997E-02   9.42219319E-32
  -1.10999998E-02   1.00735176E-31
  -1.10849999E-02   1.03745299E-31
  -1.10700000E-02   9.47108494E-32
  -1.10550001E-02   8.35250450E-32
  -1.10400002E-02   6.05147901E-32
  -1.10250004E-02   2.23153673E-32
  -1.10099996E-02  -6.15551555E-32
  -1.09949997E-02  -2.44712886E-31
  -1.09799998E-02  -2.92011370E-31
  -1.09649999E-02  -4.25518234E-31
  -1.09500000E-02  -5.65754381E-31
  -1.09350001E-02  -7.24637207E-31
  -1.09200003E-02  -8.44678267E-31
  -1.09050004E-02  -9.44603186E-31
  -1.08899996E-02  -1.03241346E-30
  -1.08749997E-02  -1.10128549E-30
  -1.08599998E-02  -1.11894414E-30
  -1.08449999E-02  -1.12079239E-30
  -1.08300000E-02  -1.08483289E-30
  -1.08150002E-02  -9.52035978E-31
  -1.08000003E-02  -7.32508740E-31
  -1.07850004E-02  -3.89528500E-31
  -1.07699996E-02   9.23950902E-32
  -1.07549997E-02   7.44061123E-31
  -1.07399998E-02   1.50571930E-30
  -1.07249999E-02   2.31866280E-30
  -1.07100001E-02   3.20161742E-30
  -1.06950002E-02   4.15062767E-30
  -1.06800003E-02   5.12321101E-30
  -1.06650004E-02   6.04340266E-30
  -1.06499996E-02   6.65567835E-30
  -1.06349997E-02   7.38702392E-30
  -1.06199998E-02   7.73046914E-30
  -1.06050000E-02   7.76956100E-30
  -1.05900001E-02   7.36587781E-30
  -1.05750002E-02   6.30622138E-30
  -1.05600003E-02   3.82428072E-30
  -1.05450004E-02   5.65729555E-31
  -1.05299996E-02  -3.50512855E-30
  -1.05149997E-02  -8.26207245E-30
  -1.04999999E-02  -1.34808130E-29
  -1.04850000E-02  -1.82122631E-29
  -1.04700001E-02  -2.33441592E-29
  -1.04550002E-02  -2.85982902E-29
  -1.04400003E-02  -3.37772182E-29
  -1.04250005E-02  -3.76473654E-29
  -1.04099996E-02  -4.00094552E-29
  -1.03949998E-02  -4.05578036E-29
  -1.03799999E-02  -3.82169471E-29
  -1.03650000E-02  -3.27906545E-29
  -1.03500001E-02  -2.38172384E-29
  -1.03350002E-02  -1.10068770E-29
  -1.03200004E-02   5.36510179E-30
  -1.03049995E-02   2.53484189E-29
  -1.02899997E-02   4.85505874E-29
  -1.02749998E-02   7.38860875E-29
  -1.02599999E-02   1.00736675E-28
  -1.02450000E-02   1.27758392E-28
  -1.02300001E-02   1.52524528E-28
  -1.02150002E-02   1.74052007E-28
  -1.02000004E-02   1.90943905E-28
  -1.01849996E-02   2.01602314E-28
  -1.01699997E-02   2.04224769E-28
  -1.01549998E-02   1.96749404E-28
  -1.01399999E-02   1.76826790E-28
  -1.01250000E-02   1.42731547E-28
  -1.01100001E-02   9.39397187E-29
  -1.00950003E-02   3.04072049E-29
  -1.00800004E-02  -5.02251263E-29
  -1.00649996E-02  -1.46149772E-28
  -1.00499997E-02  -2.53933189E-28
  -1.00349998E-02  -3.72039928E-28
  -1.00199999E-02  -4.94586562E-28
  -1.00050000E-02  -6.17995193E-28
  -9.99000017E-03  -7.34931737E-28
  -9.97500028E-03  -8.39842967E-28
  -9.96000040E-03  -9.23811876E-28
  -9.94499959E-03  -9.79116880E-28
  -9.92999971E-03  -9.97080029E-28
  -9.91499983E-03  -9.69305904E-28
  -9.89999995E-03  -8.88125453E-28
  -9.88500006E-03  -7.47634978E-28
  -9.87000018E-03  -5.42906699E-28
  -9.85500030E-03  -2.71379611E-28
  -9.84000042E-03   6.75818929E-29
  -9.82499961E-03   4.69641195E-28
  -9.80999973E-03   9.27619632E-28
  -9.79499985E-03   1.43015167E-27
  -9.77999996E-03   1.96032282E-27
  -9.76500008E-03   2.49871191E-27
  -9.75000020E-03   3.02054956E-27
  -9.73500032E-03   3.49781927E-27
  -9.72000044E-03   3.89978974E-27
  -9.70499963E-03   4.19378371E-27
  -9.68999974E-03   4.34611360E-27
  -9.67499986E-03   4.32363915E-27
  -9.65999998E-03   4.09465610E-27
  -9.64500010E-03   3.63524246E-27
  -9.63000022E-03   2.92471510E-27
  -9.61500034E-03   1.95190631E-27
  -9.60000046E-03   7.15664686E-28
  -9.58499964E-03  -7.72171711E-28
  -9.56999976E-03  -2.48582802E-27
  -9.55499988E-03  -4.38666329E-27
  -9.54000000E-03  -6.41883407E-27
  -9.52500012E-03  -8.51103340E-27
  -9.51000024E-03  -1.05771241E-26
  -9.49500035E-03  -1.25181024E-26
  -9.47999954E-03  -1.42240311E-26
  -9.46499966E-03  -1.55776255E-26
  -9.44999978E-03  -1.64589249E-26
  -9.43499990E-03  -1.67499036E-26
  -9.42000002E-03  -1.63408269E-26
  -9.40500014E-03  -1.51357078E-26
  -9.39000025E-03  -1.30604012E-26
  -9.37500037E-03  -1.00695468E-26
  -9.35999956E-03  -6.15173879E-27
  -9.34499968E-03  -1.33599276E-27
  -9.32999980E-03   4.30268196E-27
  -9.31499992E-03   1.06395673E-26
  -9.30000003E-03   1.74988377E-26
  -9.28500015E-03   2.46542421E-26
  -9.27000027E-03   3.18314435E-26
  -9.25500039E-03   3.87130808E-26
  -9.23999958E-03   4.49470233E-26
  -9.22499970E-03   5.01575636E-26
  -9.20999981E-03   5.39590966E-26
  -9.19499993E-03   5.59726395E-26
  -9.18000005E-03   5.58441476E-26
  -9.16500017E-03   5.32643012E-26
  -9.15000029E-03   4.79898632E-26
  -9.13500041E-03   3.98645836E-26
  -9.11999959E-03   2.88386624E-26
  -9.10499971E-03   1.49857888E-26
  -9.08999983E-03  -1.48227754E-27
  -9.07499995E-03  -2.02060265E-26
  -9.06000007E-03  -4.06740658E-26
  -9.04500019E-03  -6.22247011E-26
  -9.03000031E-03  -8.40552372E-26
  -9.01500043E-03  -1.05239690E-25
  -8.99999961E-03  -1.24754679E-25
  -8.98499973E-03  -1.41512587E-25
  -8.96999985E-03  -1.54403055E-25
  -8.95499997E-03  -1.62339698E-25
  -8.94000009E-03  -1.64314242E-25
  -8.92500021E-03  -1.59454020E-25
  -8.91000032E-03  -1.47079369E-25
  -8.89500044E-03  -1.26760666E-25
  -8.87999963E-03  -9.83715219E-26
  -8.86499975E-03  -6.21325584E-26
  -8.84999987E-03  -1.86493297E-26
  -8.83499999E-03   3.10676382E-26
  -8.82000010E-03   8.55965481E-26
  -8.80500022E-03   1.43116304E-25
  -8.79000034E-03   2.01441167E-25
  -8.77500046E-03   2.58074834E-25
  -8.75999965E-03   3.10286580E-25
  -8.74499977E-03   3.55208781E-25
  -8.72999988E-03   3.89952681E-25
  -8.71500000E-03   4.11740723E-25
  -8.70000012E-03   4.18050624E-25
  -8.68500024E-03   4.06763701E-25
  -8.67000036E-03   3.76315100E-25
  -8.65499955E-03   3.25835496E-25
  -8.63999967E-03   2.55276893E-25
  -8.62499978E-03   1.65516466E-25
  -8.60999990E-03   5.84284066E-26
  -8.59500002E-03  -6.30833947E-26
  -8.58000014E-03  -1.95096851E-25
  -8.56500026E-03  -3.32734701E-25
  -8.55000038E-03  -4.70279922E-25
  -8.53499956E-03  -6.01347583E-25
  -8.51999968E-03  -7.19108098E-25
  -8.50499980E-03  -8.16562298E-25
  -8.48999992E-03  -8.86856066E-25
  -8.47500004E-03  -9.23629015E-25
  -8.46000016E-03  -9.21380761E-25
  -8.44500028E-03  -8.75841892E-25
  -8.43000039E-03  -7.84330231E-25
  -8.41499958E-03  -6.46074567E-25
  -8.39999970E-03  -4.62483659E-25
  -8.38499982E-03  -2.37342559E-25
  -8.36999994E-03   2.30815555E-26
  -8.35500006E-03   3.10045016E-25
  -8.34000017E-03   6.12453956E-25
  -8.32500029E-03   9.17123969E-25
  -8.31000041E-03   1.20917033E-24
  -8.29499960E-03   1.47253884E-24
  -8.27999972E-03   1.69065514E-24
  -8.26499984E-03   1.84718250E-24
  -8.24999996E-03   1.92686435E-24
  -8.23500007E-03   1.91642200E-24
  -8.22000019E-03   1.80546378E-24
  -8.20500031E-03   1.58736948E-24
  -8.19000043E-03   1.26010156E-24
  -8.17499962E-03   8.26889276E-25
  -8.15999974E-03   2.96744032E-25
  -8.14499985E-03  -3.15248712E-25
  -8.12999997E-03  -9.87900077E-25
  -8.11500009E-03  -1.69418470E-24
  -8.10000021E-03  -2.40183494E-24
  -8.08500033E-03  -3.07426471E-24
  -8.07000045E-03  -3.67183039E-24
  -8.05499963E-03  -4.15341104E-24
  -8.03999975E-03  -4.47825252E-24
  -8.02499987E-03  -4.60804815E-24
  -8.00999999E-03  -4.50916601E-24
  -7.99500011E-03  -4.15493552E-24
  -7.98000023E-03  -3.52789168E-24
  -7.96500035E-03  -2.62187270E-24
  -7.95000046E-03  -1.44382963E-24
  -7.93499965E-03  -1.52434875E-26
  -7.91999977E-03   1.62698312E-24
  -7.90499989E-03   3.43025673E-24
  -7.89000001E-03   5.32675329E-24
  -7.87500013E-03   7.23466229E-24
  -7.86000025E-03   9.06028759E-24
  -7.84500036E-03   1.07009605E-23
  -7.82999955E-03   1.20487917E-23
  -7.81499967E-03   1.29951439E-23
  -7.79999979E-03   1.34357275E-23
  -7.78499991E-03   1.32761693E-23
  -7.77000003E-03   1.24378011E-23
  -7.75500014E-03   1.08634911E-23
  -7.73999980E-03   8.52321925E-24
  -7.72499992E-03   5.41907526E-24
  -7.71000003E-03   1.58942890E-24
  -7.69500015E-03  -2.88806119E-24
  -7.67999981E-03  -7.89487892E-24
  -7.66499992E-03  -1.32717596E-23
  -7.65000004E-03  -1.88207161E-23
  -7.63500016E-03  -2.43090738E-23
  -7.61999981E-03  -2.94756205E-23
  -7.60499993E-03  -3.40388211E-23
  -7.59000005E-03  -3.77070622E-23
  -7.57500017E-03  -4.01904878E-23
  -7.55999982E-03  -4.12144198E-23
  -7.54499994E-03  -4.05336013E-23
  -7.53000006E-03  -3.79470084E-23
  -7.51500018E-03  -3.33123875E-23
  -7.49999983E-03  -2.65600758E-23
  -7.48499995E-03  -1.77051610E-23
  -7.47000007E-03  -6.85744873E-24
  -7.45500019E-03   5.77164638E-24
  -7.43999984E-03   1.98657706E-23
  -7.42499996E-03   3.50046330E-23
  -7.41000008E-03   5.06695867E-23
  -7.39500020E-03   6.62542817E-23
  -7.37999985E-03   8.10803355E-23
  -7.36499997E-03   9.44180171E-23
  -7.35000009E-03   1.05511642E-22
  -7.33500021E-03   1.13608983E-22
  -7.31999986E-03   1.17993838E-22
  -7.30499998E-03   1.18021164E-22
  -7.29000010E-03   1.13152719E-22
  -7.27500021E-03   1.02992670E-22
  -7.25999987E-03   8.73205093E-23
  -7.24499999E-03   6.61210400E-23
  -7.23000010E-03   3.96082264E-23
  -7.21500022E-03   8.24238635E-24
  -7.19999988E-03  -2.72612501E-23
  -7.18499999E-03  -6.59339032E-23
  -7.17000011E-03  -1.06565150E-22
  -7.15500023E-03  -1.47726889E-22
  -7.13999989E-03  -1.87808218E-22
  -7.12500000E-03  -2.25062572E-22
  -7.11000012E-03  -2.57664994E-22
  -7.09499978E-03  -2.83778915E-22
  -7.07999989E-03  -3.01630547E-22
  -7.06500001E-03  -3.09588475E-22
  -7.05000013E-03  -3.06245623E-22
  -7.03499978E-03  -2.90500313E-22
  -7.01999990E-03  -2.61633027E-22
  -7.00500002E-03  -2.19375730E-22
  -6.99000014E-03  -1.63968942E-22
  -6.97499979E-03  -9.62041749E-23
  -6.95999991E-03  -1.74478456E-23
  -6.94500003E-03   7.03559861E-23
  -6.93000015E-03   1.64706054E-22
  -6.91499980E-03   2.62588874E-22
  -6.89999992E-03   3.60549823E-22
  -6.88500004E-03   4.54788384E-22
  -6.87000016E-03   5.41275257E-22
  -6.85499981E-03   6.15893168E-22
  -6.83999993E-03   6.74590983E-22
  -6.82500005E-03   7.13551270E-22
  -6.81000017E-03   7.29365142E-22
  -6.79499982E-03   7.19203503E-22
  -6.77999994E-03   6.80983709E-22
  -6.76500006E-03   6.13519971E-22
  -6.75000018E-03   5.16651689E-22
  -6.73499983E-03   3.91341450E-22
  -6.71999995E-03   2.39737884E-22
  -6.70500007E-03   6.51964697E-23
  -6.69000018E-03  -1.27747390E-22
  -6.67499984E-03  -3.33452237E-22
  -6.65999996E-03  -5.45296655E-22
  -6.64500007E-03  -7.55853804E-22
  -6.63000019E-03  -9.57112592E-22
  -6.61499985E-03  -1.14074063E-21
  -6.59999996E-03  -1.29838205E-21
  -6.58500008E-03  -1.42197659E-21
  -6.57000020E-03  -1.50410011E-21
  -6.55499985E-03  -1.53829795E-21
  -6.53999997E-03  -1.51941295E-21
  -6.52500009E-03  -1.44388506E-21
  -6.51000021E-03  -1.31001185E-21
  -6.49499986E-03  -1.11815523E-21
  -6.47999998E-03  -8.70883759E-22
  -6.46500010E-03  -5.73037750E-22
  -6.45000022E-03  -2.31711748E-22
  -6.43499987E-03   1.43854579E-22
  -6.41999999E-03   5.42474022E-22
  -6.40500011E-03   9.51301325E-22
  -6.39000023E-03   1.35620825E-21
  -6.37499988E-03   1.74223119E-21
  -6.36000000E-03   2.09408264E-21
  -6.34500012E-03   2.39671200E-21
  -6.32999977E-03   2.63588776E-21
  -6.31499989E-03   2.79879145E-21
  -6.30000001E-03   2.87458975E-21
  -6.28500013E-03   2.85496622E-21
  -6.26999978E-03   2.73459044E-21
  -6.25499990E-03   2.51149523E-21
  -6.24000002E-03   2.18735069E-21
  -6.22500014E-03   1.76760964E-21
  -6.20999979E-03   1.26151637E-21
  -6.19499991E-03   6.81970934E-22
  -6.18000003E-03   4.52434448E-23
  -6.16500014E-03  -6.29456022E-22
  -6.14999980E-03  -1.32054084E-21
  -6.13499992E-03  -2.00473785E-21
  -6.12000003E-03  -2.65786459E-21
  -6.10500015E-03  -3.25568737E-21
  -6.08999981E-03  -3.77481934E-21
  -6.07499992E-03  -4.19362072E-21
  -6.06000004E-03  -4.49307666E-21
  -6.04500016E-03  -4.65760927E-21
  -6.02999981E-03  -4.67578382E-21
  -6.01499993E-03  -4.54089319E-21
  -6.00000005E-03  -4.25137352E-21
  -5.98500017E-03  -3.81104080E-21
  -5.96999982E-03  -3.22912732E-21
  -5.95499994E-03  -2.52011176E-21
  -5.94000006E-03  -1.70333916E-21
  -5.92500018E-03  -8.02450770E-22
  -5.90999983E-03   1.55375685E-22
  -5.89499995E-03   1.14033279E-21
  -5.88000007E-03   2.12101488E-21
  -5.86500019E-03   3.06552933E-21
  -5.84999984E-03   3.94264289E-21
  -5.83499996E-03   4.72292624E-21
  -5.82000008E-03   5.37983043E-21
  -5.80500020E-03   5.89067222E-21
  -5.78999985E-03   6.23746446E-21
  -5.77499997E-03   6.40757125E-21
  -5.76000009E-03   6.39414774E-21
  -5.74500021E-03   6.19635463E-21
  -5.72999986E-03   5.81932587E-21
  -5.71499998E-03   5.27390002E-21
  -5.70000010E-03   4.57612996E-21
  -5.68500021E-03   3.74658130E-21
  -5.66999987E-03   2.80946745E-21
  -5.65499999E-03   1.79165826E-21
  -5.64000010E-03   7.21609667E-22
  -5.62500022E-03  -3.71735745E-22
  -5.60999988E-03  -1.46001417E-21
  -5.59500000E-03  -2.51642459E-21
  -5.58000011E-03  -3.51658187E-21
  -5.56500023E-03  -4.43919966E-21
  -5.54999989E-03  -5.26656001E-21
  -5.53500000E-03  -5.98476765E-21
  -5.52000012E-03  -6.58375264E-21
  -5.50499978E-03  -7.05706797E-21
  -5.48999989E-03  -7.40145702E-21
  -5.47500001E-03  -7.61626549E-21
  -5.46000013E-03  -7.70271960E-21
  -5.44499978E-03  -7.66312479E-21
  -5.42999990E-03  -7.50007973E-21
  -5.41500002E-03  -7.21572267E-21
  -5.40000014E-03  -6.81113118E-21
  -5.38499979E-03  -6.28588401E-21
  -5.36999991E-03  -5.63788130E-21
  -5.35500003E-03  -4.86343426E-21
  -5.34000015E-03  -3.95766866E-21
  -5.32499980E-03  -2.91522318E-21
  -5.30999992E-03  -1.73125732E-21
  -5.29500004E-03  -4.02702158E-22
  -5.28000016E-03   1.07030194E-21
  -5.26499981E-03   2.68283269E-21
  -5.24999993E-03   4.42361732E-21
  -5.23500005E-03   6.27354052E-21
  -5.22000017E-03   8.20438606E-21
  -5.20499982E-03   1.01778839E-20
  -5.18999994E-03   1.21452296E-20
  -5.17500006E-03   1.40471327E-20
  -5.16000018E-03   1.58145107E-20
  -5.14499983E-03   1.73698736E-20
  -5.12999995E-03   1.86294257E-20
  -5.11500007E-03   1.95058688E-20
  -5.10000018E-03   1.99118497E-20
  -5.08499984E-03   1.97640154E-20
  -5.06999996E-03   1.89874414E-20
  -5.05500007E-03   1.75203542E-20
  -5.04000019E-03   1.53189180E-20
  -5.02499985E-03   1.23617934E-20
  -5.00999996E-03   8.65432869E-21
  -4.99500008E-03   4.23205554E-21
  -4.98000020E-03  -8.36773363E-22
  -4.96499985E-03  -6.44976796E-21
  -4.94999997E-03  -1.24703512E-20
  -4.93500009E-03  -1.87292415E-20
  -4.92000021E-03  -2.50275256E-20
  -4.90499986E-03  -3.11413823E-20
  -4.88999998E-03  -3.68284590E-20
  -4.87500010E-03  -4.18356579E-20
  -4.86000022E-03  -4.59083204E-20
  -4.84499987E-03  -4.88003216E-20
  -4.82999999E-03  -5.02849815E-20
  -4.81500011E-03  -5.01661680E-20
  -4.80000023E-03  -4.82891821E-20
  -4.78499988E-03  -4.45511045E-20
  -4.77000000E-03  -3.89098684E-20
  -4.75500012E-03  -3.13917304E-20
  -4.73999977E-03  -2.20965985E-20
  -4.72499989E-03  -1.12008850E-20
  -4.71000001E-03   1.04256110E-21
  -4.69500013E-03   1.43075589E-20
  -4.67999978E-03   2.82009232E-20
  -4.66499990E-03   4.22720668E-20
  -4.65000002E-03   5.60255180E-20
  -4.63500014E-03   6.89364891E-20
  -4.61999979E-03   8.04685177E-20
  -4.60499991E-03   9.00932488E-20
  -4.59000003E-03   9.73112398E-20
  -4.57500014E-03   1.01673222E-19
  -4.55999980E-03   1.02800973E-19
  -4.54499992E-03   1.00407041E-19
  -4.53000003E-03   9.43122448E-20
  -4.51500015E-03   8.44602846E-20
  -4.49999981E-03   7.09286308E-20
  -4.48499992E-03   5.39350872E-20
  -4.47000004E-03   3.38392868E-20
  -4.45500016E-03   1.11390056E-20
  -4.43999982E-03  -1.35390330E-20
  -4.42499993E-03  -3.94538204E-20
  -4.41000005E-03  -6.57701063E-20
  -4.39500017E-03  -9.15828460E-20
  -4.37999982E-03  -1.15946398E-19
  -4.36499994E-03  -1.37906195E-19
  -4.35000006E-03  -1.56533488E-19
  -4.33500018E-03  -1.70960435E-19
  -4.31999983E-03  -1.80415459E-19
  -4.30499995E-03  -1.84256692E-19
  -4.29000007E-03  -1.82002960E-19
  -4.27500019E-03  -1.73360203E-19
  -4.25999984E-03  -1.58242663E-19
  -4.24499996E-03  -1.36787743E-19
  -4.23000008E-03  -1.09363410E-19
  -4.21500020E-03  -7.65676761E-20
  -4.19999985E-03  -3.92198285E-20
  -4.18499997E-03   1.65663799E-21
  -4.17000009E-03   4.48595007E-20
  -4.15500021E-03   8.90405323E-20
  -4.13999986E-03   1.32745402E-19
  -4.12499998E-03   1.74458866E-19
  -4.11000010E-03   2.12654642E-19
  -4.09500021E-03   2.45847565E-19
  -4.07999987E-03   2.72646976E-19
  -4.06499999E-03   2.91809519E-19
  -4.05000011E-03   3.02288502E-19
  -4.03500022E-03   3.03279232E-19
  -4.01999988E-03   2.94258077E-19
  -4.00500000E-03   2.75013100E-19
  -3.99000011E-03   2.45665611E-19
  -3.97500023E-03   2.06681558E-19
  -3.95999989E-03   1.58871191E-19
  -3.94500000E-03   1.03377589E-19
  -3.93000012E-03   4.16529124E-20
  -3.91499978E-03  -2.45759657E-20
  -3.89999989E-03  -9.33531353E-20
  -3.88500001E-03  -1.62548332E-19
  -3.86999990E-03  -2.29919608E-19
  -3.85500002E-03  -2.93182898E-19
  -3.83999990E-03  -3.50084342E-19
  -3.82500002E-03  -3.98476166E-19
  -3.80999991E-03  -4.36390764E-19
  -3.79500003E-03  -4.62112514E-19
  -3.77999991E-03  -4.74243738E-19
  -3.76500003E-03  -4.71763903E-19
  -3.74999992E-03  -4.54077437E-19
  -3.73500003E-03  -4.21051217E-19
  -3.71999992E-03  -3.73037958E-19
  -3.70500004E-03  -3.10884847E-19
  -3.68999992E-03  -2.35927575E-19
  -3.67500004E-03  -1.49967742E-19
  -3.65999993E-03  -5.52351405E-20
  -3.64500005E-03   4.56651067E-20
  -3.62999993E-03   1.49819172E-19
  -3.61500005E-03   2.54083776E-19
  -3.59999994E-03   3.55175199E-19
  -3.58500006E-03   4.49766947E-19
  -3.56999994E-03   5.34591475E-19
  -3.55500006E-03   6.06546107E-19
  -3.53999995E-03   6.62795630E-19
  -3.52500007E-03   7.00872718E-19
  -3.50999995E-03   7.18770580E-19
  -3.49500007E-03   7.15023917E-19
  -3.47999996E-03   6.88778769E-19
  -3.46500007E-03   6.39844315E-19
  -3.44999996E-03   5.68727772E-19
  -3.43500008E-03   4.76648197E-19
  -3.41999996E-03   3.65530286E-19
  -3.40500008E-03   2.37975313E-19
  -3.38999997E-03   9.72099489E-20
  -3.37500009E-03  -5.29856131E-20
  -3.35999997E-03  -2.08370402E-19
  -3.34500009E-03  -3.64353001E-19
  -3.32999998E-03  -5.16117637E-19
  -3.31500010E-03  -6.58763383E-19
  -3.29999998E-03  -7.87450869E-19
  -3.28500010E-03  -8.97555071E-19
  -3.26999999E-03  -9.84817352E-19
  -3.25500011E-03  -1.04549415E-18
  -3.23999999E-03  -1.07649430E-18
  -3.22500011E-03  -1.07550685E-18
  -3.21000000E-03  -1.04110503E-18
  -3.19500011E-03  -9.72833160E-19
  -3.18000000E-03  -8.71263859E-19
  -3.16499989E-03  -7.38027707E-19
  -3.15000000E-03  -5.75811798E-19
  -3.13499989E-03  -3.88324307E-19
  -3.12000001E-03  -1.80227353E-19
  -3.10499989E-03   4.29642295E-20
  -3.09000001E-03   2.75014393E-19
  -3.07499990E-03   5.09125996E-19
  -3.06000002E-03   7.38126761E-19
  -3.04499990E-03   9.54674271E-19
  -3.03000002E-03   1.15147698E-18
  -3.01499991E-03   1.32152319E-18
  -3.00000003E-03   1.45831167E-18
  -2.98499991E-03   1.55608007E-18
  -2.97000003E-03   1.61001566E-18
  -2.95499992E-03   1.61645081E-18
  -2.94000003E-03   1.57302993E-18
  -2.92499992E-03   1.47884249E-18
  -2.91000004E-03   1.33451840E-18
  -2.89499993E-03   1.14227749E-18
  -2.88000004E-03   9.05933584E-19
  -2.86499993E-03   6.30846606E-19
  -2.85000005E-03   3.23826114E-19
  -2.83499993E-03  -7.01778093E-21
  -2.82000005E-03  -3.52468509E-19
  -2.80499994E-03  -7.02443069E-19
  -2.79000006E-03  -1.04626808E-18
  -2.77499994E-03  -1.37298912E-18
  -2.76000006E-03  -1.67170079E-18
  -2.74499995E-03  -1.93189087E-18
  -2.73000007E-03  -2.14378766E-18
  -2.71499995E-03  -2.29869708E-18
  -2.70000007E-03  -2.38932650E-18
  -2.68499996E-03  -2.41007012E-18
  -2.67000007E-03  -2.35726147E-18
  -2.65499996E-03  -2.22937024E-18
  -2.64000008E-03  -2.02714382E-18
  -2.62499996E-03  -1.75368080E-18
  -2.61000008E-03  -1.41443418E-18
  -2.59499997E-03  -1.01714140E-18
  -2.58000009E-03  -5.71678377E-19
  -2.56499997E-03  -8.98388197E-20
  -2.55000009E-03   4.14953216E-19
  -2.53499998E-03   9.27997075E-19
  -2.52000010E-03   1.43372331E-18
  -2.50499998E-03   1.91614404E-18
  -2.49000010E-03   2.35934058E-18
  -2.47499999E-03   2.74796203E-18
  -2.46000011E-03   3.06772896E-18
  -2.44499999E-03   3.30593010E-18
  -2.43000011E-03   3.45187846E-18
  -2.41500000E-03   3.49733328E-18
  -2.40000011E-03   3.43685438E-18
  -2.38500000E-03   3.26808679E-18
  -2.36999989E-03   2.99195922E-18
  -2.35500000E-03   2.61278542E-18
  -2.33999989E-03   2.13826664E-18
  -2.32500001E-03   1.57938299E-18
  -2.30999989E-03   9.50182266E-19
  -2.29500001E-03   2.67461122E-19
  -2.27999990E-03  -4.49651762E-19
  -2.26500002E-03  -1.18020196E-18
  -2.24999990E-03  -1.90199408E-18
  -2.23500002E-03  -2.59223597E-18
  -2.21999991E-03  -3.22822868E-18
  -2.20500003E-03  -3.78808147E-18
  -2.18999991E-03  -4.25142959E-18
  -2.17500003E-03  -4.60012592E-18
  -2.15999992E-03  -4.81890030E-18