  -1.49999997E-02   0.00000000    
  -1.49849998E-02   0.00000000    
  -1.49699999E-02   0.00000000    
  -1.49550000E-02   0.00000000    
  -1.49400001E-02   0.00000000    
  -1.49250003E-02   0.00000000    
  -1.49100004E-02   0.00000000    
  -1.48949996E-02   0.00000000    
  -1.48799997E-02   0.00000000    
  -1.48649998E-02   0.00000000    
  -1.48499999E-02   0.00000000    
  -1.48350000E-02   0.00000000    
  -1.48200002E-02   0.00000000    
  -1.48050003E-02   0.00000000    
  -1.47900004E-02   0.00000000    
  -1.47749996E-02   0.00000000    
  -1.47599997E-02   0.00000000    
  -1.47449998E-02   0.00000000    
  -1.47299999E-02   0.00000000    
  -1.47150001E-02   0.00000000    
  -1.47000002E-02   0.00000000    
  -1.46850003E-02   0.00000000    
  -1.46700004E-02   0.00000000    
  -1.46549996E-02   0.00000000    
  -1.46399997E-02   0.00000000    
  -1.46249998E-02   0.00000000    
  -1.46100000E-02   0.00000000    
  -1.45950001E-02   0.00000000    
  -1.45800002E-02   0.00000000    
  -1.45650003E-02   0.00000000    
  -1.45500004E-02   0.00000000    
  -1.45349996E-02   0.00000000    
  -1.45199997E-02   0.00000000    
  -1.45049999E-02   0.00000000    
  -1.44900000E-02   0.00000000    
  -1.44750001E-02   0.00000000    
  -1.44600002E-02   0.00000000    
  -1.44450003E-02   0.00000000    
  -1.44300004E-02   0.00000000    
  -1.44149996E-02   0.00000000    
  -1.43999998E-02   0.00000000    
  -1.43849999E-02   0.00000000    
  -1.43700000E-02   0.00000000    
  -1.43550001E-02   0.00000000    
  -1.43400002E-02   0.00000000    
  -1.43250003E-02   0.00000000    
  -1.43100005E-02   0.00000000    
  -1.42949997E-02   0.00000000    
  -1.42799998E-02   0.00000000    
  -1.42649999E-02   0.00000000    
  -1.42500000E-02   0.00000000    
  -1.42350001E-02   0.00000000    
  -1.42200002E-02   0.00000000    
  -1.42050004E-02   0.00000000    
  -1.41899996E-02   0.00000000    
  -1.41749997E-02   0.00000000    
  -1.41599998E-02   0.00000000    
  -1.41449999E-02   0.00000000    
  -1.41300000E-02   0.00000000    
  -1.41150001E-02   0.00000000    
  -1.41000003E-02   0.00000000    
  -1.40850004E-02   0.00000000    
  -1.40699996E-02   0.00000000    
  -1.40549997E-02   0.00000000    
  -1.40399998E-02   0.00000000    
  -1.40249999E-02   0.00000000    
  -1.40100000E-02   0.00000000    
  -1.39950002E-02   0.00000000    
  -1.39800003E-02   0.00000000    
  -1.39650004E-02   0.00000000    
  -1.39499996E-02   0.00000000    
  -1.39349997E-02   0.00000000    
  -1.39199998E-02   0.00000000    
  -1.39049999E-02   0.00000000    
  -1.38900001E-02   0.00000000    
  -1.38750002E-02   0.00000000    
  -1.38600003E-02   0.00000000    
  -1.38450004E-02   0.00000000    
  -1.38299996E-02   0.00000000    
  -1.38149997E-02   0.00000000    
  -1.37999998E-02   0.00000000    
  -1.37850000E-02   0.00000000    
  -1.37700001E-02   0.00000000    
  -1.37550002E-02   0.00000000    
  -1.37400003E-02   0.00000000    
  -1.37250004E-02   0.00000000    
  -1.37099996E-02   0.00000000    
  -1.36949997E-02   0.00000000    
  -1.36799999E-02   0.00000000    
  -1.36650000E-02   0.00000000    
  -1.36500001E-02   0.00000000    
  -1.36350002E-02   0.00000000    
  -1.36200003E-02   0.00000000    
  -1.36050005E-02   0.00000000    
  -1.35899996E-02   0.00000000    
  -1.35749998E-02   0.00000000    
  -1.35599999E-02   0.00000000    
  -1.35450000E-02   0.00000000    
  -1.35300001E-02   0.00000000    
  -1.35150002E-02   0.00000000    
  -1.35000004E-02   0.00000000    
  -1.34849995E-02   0.00000000    
  -1.34699997E-02   0.00000000    
  -1.34549998E-02   0.00000000    
  -1.34399999E-02   0.00000000    
  -1.34250000E-02   0.00000000    
  -1.34100001E-02   0.00000000    
  -1.33950002E-02   0.00000000    
  -1.33800004E-02   0.00000000    
  -1.33649996E-02   0.00000000    
  -1.33499997E-02   0.00000000    
  -1.33349998E-02   0.00000000    
  -1.33199999E-02   0.00000000    
  -1.33050000E-02   0.00000000    
  -1.32900001E-02   0.00000000    
  -1.32750003E-02   0.00000000    
  -1.32600004E-02   0.00000000    
  -1.32449996E-02   0.00000000    
  -1.32299997E-02   0.00000000    
  -1.32149998E-02   0.00000000    
  -1.31999999E-02   0.00000000    
  -1.31850000E-02   0.00000000    
  -1.31700002E-02   0.00000000    
  -1.31550003E-02   0.00000000    
  -1.31400004E-02   0.00000000    
  -1.31249996E-02   0.00000000    
  -1.31099997E-02   0.00000000    
  -1.30949998E-02   0.00000000    
  -1.30799999E-02   0.00000000    
  -1.30650001E-02   0.00000000    
  -1.30500002E-02   0.00000000    
  -1.30350003E-02   0.00000000    
  -1.30200004E-02   0.00000000    
  -1.30049996E-02   0.00000000    
  -1.29899997E-02   0.00000000    
  -1.29749998E-02   0.00000000    
  -1.29600000E-02   0.00000000    
  -1.29450001E-02   0.00000000    
  -1.29300002E-02   0.00000000    
  -1.29150003E-02   0.00000000    
  -1.29000004E-02   0.00000000    
  -1.28849996E-02   0.00000000    
  -1.28699997E-02   0.00000000    
  -1.28549999E-02   0.00000000    
  -1.28400000E-02   0.00000000    
  -1.28250001E-02   0.00000000    
  -1.28100002E-02   0.00000000    
  -1.27950003E-02   0.00000000    
  -1.27800005E-02   0.00000000    
  -1.27649996E-02   0.00000000    
  -1.27499998E-02   0.00000000    
  -1.27349999E-02   0.00000000    
  -1.27200000E-02   0.00000000    
  -1.27050001E-02   0.00000000    
  -1.26900002E-02   0.00000000    
  -1.26750004E-02   0.00000000    
  -1.26599995E-02   0.00000000    
  -1.26449997E-02   0.00000000    
  -1.26299998E-02   0.00000000    
  -1.26149999E-02   0.00000000    
  -1.26000000E-02   0.00000000    
  -1.25850001E-02   0.00000000    
  -1.25700003E-02   0.00000000    
  -1.25550004E-02   0.00000000    
  -1.25399996E-02   0.00000000    
  -1.25249997E-02   0.00000000    
  -1.25099998E-02   0.00000000    
  -1.24949999E-02   0.00000000    
  -1.24800000E-02   0.00000000    
  -1.24650002E-02   0.00000000    
  -1.24500003E-02   0.00000000    
  -1.24350004E-02   0.00000000    
  -1.24199996E-02   0.00000000    
  -1.24049997E-02   0.00000000    
  -1.23899998E-02   0.00000000    
  -1.23749999E-02   0.00000000    
  -1.23600001E-02   0.00000000    
  -1.23450002E-02   0.00000000    
  -1.23300003E-02   0.00000000    
  -1.23150004E-02   0.00000000    
  -1.22999996E-02   0.00000000    
  -1.22849997E-02   0.00000000    
  -1.22699998E-02   0.00000000    
  -1.22550000E-02   0.00000000    
  -1.22400001E-02   0.00000000    
  -1.22250002E-02   0.00000000    
  -1.22100003E-02   0.00000000    
  -1.21950004E-02   0.00000000    
  -1.21799996E-02   0.00000000    
  -1.21649997E-02   0.00000000    
  -1.21499998E-02   0.00000000    
  -1.21350000E-02   0.00000000    
  -1.21200001E-02   0.00000000    
  -1.21050002E-02   0.00000000    
  -1.20900003E-02   0.00000000    
  -1.20750004E-02   0.00000000    
  -1.20599996E-02   0.00000000    
  -1.20449997E-02   0.00000000    
  -1.20299999E-02   0.00000000    
  -1.20150000E-02   0.00000000    
  -1.20000001E-02   0.00000000    
  -1.19850002E-02   0.00000000    
  -1.19700003E-02   0.00000000    
  -1.19550005E-02   0.00000000    
  -1.19399996E-02   0.00000000    
  -1.19249998E-02   0.00000000    
  -1.19099999E-02   0.00000000    
  -1.18950000E-02   0.00000000    
  -1.18800001E-02   0.00000000    
  -1.18650002E-02   0.00000000    
  -1.18500004E-02   0.00000000    
  -1.18349995E-02   0.00000000    
  -1.18199997E-02   0.00000000    
  -1.18049998E-02   0.00000000    
  -1.17899999E-02   0.00000000    
  -1.17750000E-02   0.00000000    
  -1.17600001E-02   0.00000000    
  -1.17450003E-02   0.00000000    
  -1.17300004E-02   0.00000000    
  -1.17149996E-02   0.00000000    
  -1.16999997E-02   0.00000000    
  -1.16849998E-02   0.00000000    
  -1.16699999E-02   0.00000000    
  -1.16550000E-02   0.00000000    
  -1.16400002E-02   0.00000000    
  -1.16250003E-02   0.00000000    
  -1.16100004E-02   0.00000000    
  -1.15949996E-02   0.00000000    
  -1.15799997E-02   0.00000000    
  -1.15649998E-02   0.00000000    
  -1.15499999E-02   0.00000000    
  -1.15350001E-02   0.00000000    
  -1.15200002E-02   0.00000000    
  -1.15050003E-02   0.00000000    
  -1.14900004E-02   0.00000000    
  -1.14749996E-02   0.00000000    
  -1.14599997E-02   0.00000000    
  -1.14449998E-02   0.00000000    
  -1.14300000E-02   0.00000000    
  -1.14150001E-02   0.00000000    
  -1.14000002E-02   0.00000000    
  -1.13850003E-02   0.00000000    
  -1.13700004E-02   0.00000000    
  -1.13549996E-02   0.00000000    
  -1.13399997E-02   0.00000000    
  -1.13249999E-02   0.00000000    
  -1.13100000E-02   0.00000000    
  -1.12950001E-02   0.00000000    
  -1.12800002E-02   0.00000000    
  -1.12650003E-02   0.00000000    
  -1.12500004E-02   0.00000000    
  -1.12349996E-02   0.00000000    
  -1.12199998E-02   0.00000000    
  -1.12049999E-02   0.00000000    
  -1.11900000E-02   0.00000000    
  -1.11750001E-02   0.00000000    
  -1.11600002E-02   0.00000000    
  -1.11450003E-02   0.00000000    
  -1.11300005E-02   0.00000000    
  -1.11149997E-02   0.00000000    
  -1.10999998E-02   0.00000000    
  -1.10849999E-02   0.00000000    
  -1.10700000E-02   0.00000000    
  -1.10550001E-02   0.00000000    
  -1.10400002E-02   0.00000000    
  -1.10250004E-02   0.00000000    
  -1.10099996E-02   0.00000000    
  -1.09949997E-02   0.00000000    
  -1.09799998E-02   0.00000000    
  -1.09649999E-02   0.00000000    
  -1.09500000E-02   0.00000000    
  -1.09350001E-02   0.00000000    
  -1.09200003E-02   0.00000000    
  -1.09050004E-02   0.00000000    
  -1.08899996E-02   0.00000000    
  -1.08749997E-02   0.00000000    
  -1.08599998E-02   0.00000000    
  -1.08449999E-02   0.00000000    
  -1.08300000E-02   0.00000000    
  -1.08150002E-02   0.00000000    
  -1.08000003E-02   0.00000000    
  -1.07850004E-02   0.00000000    
  -1.07699996E-02   0.00000000    
  -1.07549997E-02   0.00000000    
  -1.07399998E-02   0.00000000    
  -1.07249999E-02   0.00000000    
  -1.07100001E-02   0.00000000    
  -1.06950002E-02   0.00000000    
  -1.06800003E-02   0.00000000    
  -1.06650004E-02   0.00000000    
  -1.06499996E-02   0.00000000    
  -1.06349997E-02   0.00000000    
  -1.06199998E-02   0.00000000    
  -1.06050000E-02   0.00000000    
  -1.05900001E-02   0.00000000    
  -1.05750002E-02   0.00000000    
  -1.05600003E-02   0.00000000    
  -1.05450004E-02   0.00000000    
  -1.05299996E-02   0.00000000    
  -1.05149997E-02   0.00000000    
  -1.04999999E-02   0.00000000    
  -1.04850000E-02   0.00000000    
  -1.04700001E-02   0.00000000    
  -1.04550002E-02   0.00000000    
  -1.04400003E-02   0.00000000    
  -1.04250005E-02   0.00000000    
  -1.04099996E-02   0.00000000    
  -1.03949998E-02   0.00000000    
  -1.03799999E-02   0.00000000    
  -1.03650000E-02   0.00000000    
  -1.03500001E-02   0.00000000    
  -1.03350002E-02   0.00000000    
  -1.03200004E-02   0.00000000    
  -1.03049995E-02   0.00000000    
  -1.02899997E-02   0.00000000    
  -1.02749998E-02   0.00000000    
  -1.02599999E-02   0.00000000    
  -1.02450000E-02   0.00000000    
  -1.02300001E-02   0.00000000    
  -1.02150002E-02   0.00000000    
  -1.02000004E-02   0.00000000    
  -1.01849996E-02   0.00000000    
  -1.01699997E-02   0.00000000    
  -1.01549998E-02   0.00000000    
  -1.01399999E-02   0.00000000    
  -1.01250000E-02   0.00000000    
  -1.01100001E-02   0.00000000    
  -1.00950003E-02   0.00000000    
  -1.00800004E-02   0.00000000    
  -1.00649996E-02   0.00000000    
  -1.00499997E-02   0.00000000    
  -1.00349998E-02   0.00000000    
  -1.00199999E-02   0.00000000    
  -1.00050000E-02   0.00000000    
  -9.99000017E-03   0.00000000    
  -9.97500028E-03   0.00000000    
  -9.96000040E-03   0.00000000    
  -9.94499959E-03   0.00000000    
  -9.92999971E-03   0.00000000    
  -9.91499983E-03   0.00000000    
  -9.89999995E-03   0.00000000    
  -9.88500006E-03   0.00000000    
  -9.87000018E-03   0.00000000    
  -9.85500030E-03   0.00000000    
  -9.84000042E-03   0.00000000    
  -9.82499961E-03   0.00000000    
  -9.80999973E-03   0.00000000    
  -9.79499985E-03   0.00000000    
  -9.77999996E-03   0.00000000    
  -9.76500008E-03   0.00000000    
  -9.75000020E-03   0.00000000    
  -9.73500032E-03   0.00000000    
  -9.72000044E-03   0.00000000    
  -9.70499963E-03   0.00000000    
  -9.68999974E-03   0.00000000    
  -9.67499986E-03   0.00000000    
  -9.65999998E-03   0.00000000    
  -9.64500010E-03   0.00000000    
  -9.63000022E-03   0.00000000    
  -9.61500034E-03   0.00000000    
  -9.60000046E-03   0.00000000    
  -9.58499964E-03   0.00000000    
  -9.56999976E-03   0.00000000    
  -9.55499988E-03   0.00000000    
  -9.54000000E-03   0.00000000    
  -9.52500012E-03   0.00000000    
  -9.51000024E-03   0.00000000    
  -9.49500035E-03   0.00000000    
  -9.47999954E-03   0.00000000    
  -9.46499966E-03   0.00000000    
  -9.44999978E-03   0.00000000    
  -9.43499990E-03   0.00000000    
  -9.42000002E-03   0.00000000    
  -9.40500014E-03   0.00000000    
  -9.39000025E-03   0.00000000    
  -9.37500037E-03   0.00000000    
  -9.35999956E-03   0.00000000    
  -9.34499968E-03   0.00000000    
  -9.32999980E-03   0.00000000    
  -9.31499992E-03   0.00000000    
  -9.30000003E-03   0.00000000    
  -9.28500015E-03   0.00000000    
  -9.27000027E-03   0.00000000    
  -9.25500039E-03   0.00000000    
  -9.23999958E-03   0.00000000    
  -9.22499970E-03   0.00000000    
  -9.20999981E-03   0.00000000    
  -9.19499993E-03   0.00000000    
  -9.18000005E-03   0.00000000    
  -9.16500017E-03   0.00000000    
  -9.15000029E-03   0.00000000    
  -9.13500041E-03   0.00000000    
  -9.11999959E-03   0.00000000    
  -9.10499971E-03   0.00000000    
  -9.08999983E-03   1.28003500E-38
  -9.07499995E-03   1.55001617E-38
  -9.06000007E-03   1.81999748E-38
  -9.04500019E-03   2.05818066E-38
  -9.03000031E-03   2.16137326E-38
  -9.01500043E-03   2.16137326E-38
  -8.99999961E-03   2.06533961E-38
  -8.98499973E-03   1.75576518E-38
  -8.96999985E-03   1.19233179E-38
  -8.95499997E-03   0.00000000    
  -8.94000009E-03  -0.00000000    
  -8.92500021E-03  -2.29988615E-38
  -8.91000032E-03  -4.09185850E-38
  -8.89500044E-03  -6.16713528E-38
  -8.87999963E-03  -8.47509291E-38
  -8.86499975E-03  -1.09409494E-37
  -8.84999987E-03  -1.34326475E-37
  -8.83499999E-03  -1.57886349E-37
  -8.82000010E-03  -1.77745125E-37
  -8.80500022E-03  -1.90267005E-37
  -8.79000034E-03  -1.89603911E-37
  -8.77500046E-03  -1.75289288E-37
  -8.75999965E-03  -1.34586949E-37
  -8.74499977E-03  -3.24528029E-38
  -8.72999988E-03   1.21818597E-37
  -8.71500000E-03   2.72142946E-37
  -8.70000012E-03   4.19804716E-37
  -8.68500024E-03   5.92225950E-37
  -8.67000036E-03   7.82878233E-37
  -8.65499955E-03   9.80060882E-37
  -8.63999967E-03   1.17445152E-36
  -8.62499978E-03   1.35347217E-36
  -8.60999990E-03   1.45301046E-36
  -8.59500002E-03   1.46591317E-36
  -8.58000014E-03   1.36767430E-36
  -8.56500026E-03   1.08820408E-36
  -8.55000038E-03   6.21466183E-37
  -8.53499956E-03  -4.43059073E-38
  -8.51999968E-03  -9.09997214E-37
  -8.50499980E-03  -1.96243756E-36
  -8.48999992E-03  -3.18543041E-36
  -8.47500004E-03  -4.57040691E-36
  -8.46000016E-03  -6.10214299E-36
  -8.44500028E-03  -7.73495444E-36
  -8.43000039E-03  -9.34933349E-36
  -8.41499958E-03  -1.08254470E-35
  -8.39999970E-03  -1.19929553E-35
  -8.38499982E-03  -1.28224121E-35
  -8.36999994E-03  -1.33037276E-35
  -8.35500006E-03  -1.34080197E-35
  -8.34000017E-03  -1.29363555E-35
  -8.32500029E-03  -1.08959817E-35
  -8.31000041E-03  -7.22607673E-36
  -8.29499960E-03  -3.10768234E-36
  -8.27999972E-03   1.48450429E-36
  -8.26499984E-03   7.10568685E-36
  -8.24999996E-03   1.36999103E-35
  -8.23500007E-03   2.08921808E-35
  -8.22000019E-03   2.88970433E-35
  -8.20500031E-03   3.84376493E-35
  -8.19000043E-03   4.80913077E-35
  -8.17499962E-03   5.60174314E-35
  -8.15999974E-03   6.30103199E-35
  -8.14499985E-03   6.92523498E-35
  -8.12999997E-03   7.34599710E-35
  -8.11500009E-03   7.45891344E-35
  -8.10000021E-03   7.19686659E-35
  -8.08500033E-03   6.51571640E-35
  -8.07000045E-03   5.35374023E-35
  -8.05499963E-03   3.63930009E-35
  -8.03999975E-03   1.29966240E-35
  -8.02499987E-03  -1.66982215E-35
  -8.00999999E-03  -5.22947705E-35
  -7.99500011E-03  -9.26804286E-35
  -7.98000023E-03  -1.36727935E-34
  -7.96500035E-03  -1.82634835E-34
  -7.95000046E-03  -2.28530405E-34
  -7.93499965E-03  -2.71852239E-34
  -7.91999977E-03  -3.08934448E-34
  -7.90499989E-03  -3.36978415E-34
  -7.89000001E-03  -3.52354776E-34
  -7.87500013E-03  -3.51454191E-34
  -7.86000025E-03  -3.31572794E-34
  -7.84500036E-03  -2.90188413E-34
  -7.82999955E-03  -2.25402327E-34
  -7.81499967E-03  -1.36438298E-34
  -7.79999979E-03  -2.39903373E-35
  -7.78499991E-03   1.10199071E-34
  -7.77000003E-03   2.62916668E-34
  -7.75500014E-03   4.28457864E-34
  -7.73999980E-03   6.00157870E-34
  -7.72499992E-03   7.72608723E-34
  -7.71000003E-03   9.36940446E-34
  -7.69500015E-03   1.08034341E-33
  -7.67999981E-03   1.18979488E-33
  -7.66499992E-03   1.24616718E-33
  -7.65000004E-03   1.23688225E-33
  -7.63500016E-03   1.15925581E-33
  -7.61999981E-03   1.00794664E-33
  -7.60499993E-03   7.78240351E-34
  -7.59000005E-03   4.66637554E-34
  -7.57500017E-03   7.26163644E-35
  -7.55999982E-03  -3.96841015E-34
  -7.54499994E-03  -9.33720969E-34
  -7.53000006E-03  -1.52259249E-33
  -7.51500018E-03  -2.13380235E-33
  -7.49999983E-03  -2.72979084E-33
  -7.48499995E-03  -3.27072377E-33
  -7.47000007E-03  -3.71361183E-33
  -7.45500019E-03  -4.01299004E-33
  -7.43999984E-03  -4.12885007E-33
  -7.42499996E-03  -4.02038574E-33
  -7.41000008E-03  -3.65863103E-33
  -7.39500020E-03  -3.03687717E-33
  -7.37999985E-03  -2.14046685E-33
  -7.36499997E-03  -9.57930091E-34
  -7.35000009E-03   4.88668017E-34
  -7.33500021E-03   2.16227135E-33
  -7.31999986E-03   4.01343232E-33
  -7.30499998E-03   5.97776640E-33
  -7.29000010E-03   7.97688262E-33
  -7.27500021E-03   9.91618455E-33
  -7.25999987E-03   1.16850780E-32
  -7.24499999E-03   1.31506682E-32
  -7.23000010E-03   1.41733248E-32
  -7.21500022E-03   1.46182494E-32
  -7.19999988E-03   1.43695824E-32
  -7.18499999E-03   1.33371089E-32
  -7.17000011E-03   1.14421797E-32
  -7.15500023E-03   8.64099138E-33
  -7.13999989E-03   4.92571145E-33
  -7.12500000E-03   3.30989225E-34
  -7.11000012E-03  -5.04668267E-33
  -7.09499978E-03  -1.10601235E-32
  -7.07999989E-03  -1.75095908E-32
  -7.06500001E-03  -2.41382593E-32
  -7.05000013E-03  -3.06395659E-32
  -7.03499978E-03  -3.66772076E-32
  -7.01999990E-03  -4.18860023E-32
  -7.00500002E-03  -4.58701376E-32
  -6.99000014E-03  -4.82181611E-32
  -6.97499979E-03  -4.85427475E-32
  -6.95999991E-03  -4.65131095E-32
  -6.94500003E-03  -4.18542110E-32
  -6.93000015E-03  -3.43739498E-32
  -6.91499980E-03  -2.39951693E-32
  -6.89999992E-03  -1.07698344E-32
  -6.88500004E-03   5.09622682E-33
  -6.87000016E-03   2.32315094E-32
  -6.85499981E-03   4.31020101E-32
  -6.83999993E-03   6.40137019E-32
  -6.82500005E-03   8.51223008E-32
  -6.81000017E-03   1.05445264E-31
  -6.79499982E-03   1.23881494E-31
  -6.77999994E-03   1.39254398E-31
  -6.76500006E-03   1.50353815E-31
  -6.75000018E-03   1.55993555E-31
  -6.73499983E-03   1.55080172E-31
  -6.71999995E-03   1.46673060E-31
  -6.70500007E-03   1.30052205E-31
  -6.69000018E-03   1.04784389E-31
  -6.67499984E-03   7.07853252E-32
  -6.65999996E-03   2.83708647E-32
  -6.64500007E-03  -2.17023073E-32
  -6.63000019E-03  -7.82021832E-32
  -6.61499985E-03  -1.39413042E-31
  -6.59999996E-03  -2.03155023E-31
  -6.58500008E-03  -2.66819726E-31
  -6.57000020E-03  -3.27433364E-31
  -6.55499985E-03  -3.81744800E-31
  -6.53999997E-03  -4.26341833E-31
  -6.52500009E-03  -4.57793031E-31
  -6.51000021E-03  -4.72802025E-31
  -6.49499986E-03  -4.68374219E-31
  -6.47999998E-03  -4.42000311E-31
  -6.46500010E-03  -3.91850007E-31
  -6.45000022E-03  -3.16947084E-31
  -6.43499987E-03  -2.17322151E-31
  -6.41999999E-03  -9.41475819E-32
  -6.40500011E-03   5.01657143E-32
  -6.39000023E-03   2.11913114E-31
  -6.37499988E-03   3.86096456E-31
  -6.36000000E-03   5.66487843E-31
  -6.34500012E-03   7.45752142E-31
  -6.32999977E-03   9.15650666E-31
  -6.31499989E-03   1.06730392E-30
  -6.30000001E-03   1.19150571E-30
  -6.28500013E-03   1.27910872E-30
  -6.26999978E-03   1.32145878E-30
  -6.25499990E-03   1.31085356E-30
  -6.24000002E-03   1.24101387E-30
  -6.22500014E-03   1.10754589E-30
  -6.20999979E-03   9.08376801E-31
  -6.19499991E-03   6.44139542E-31
  -6.18000003E-03   3.18477625E-31
  -6.16500014E-03  -6.17476309E-32
  -6.14999980E-03  -4.86376069E-31
  -6.13499992E-03  -9.42011550E-31
  -6.12000003E-03  -1.41224371E-30
  -6.10500015E-03  -1.87804670E-30
  -6.08999981E-03  -2.31831729E-30
  -6.07499992E-03  -2.71057242E-30
  -6.06000004E-03  -3.03181585E-30
  -6.04500016E-03  -3.25952245E-30
  -6.02999981E-03  -3.37271748E-30
  -6.01499993E-03  -3.35310836E-30
  -6.00000005E-03  -3.18621336E-30
  -5.98500017E-03  -2.86245194E-30
  -5.96999982E-03  -2.37813679E-30
  -5.95499994E-03  -1.73631537E-30
  -5.94000006E-03  -9.47406975E-31
  -5.92500018E-03  -2.95541173E-32
  -5.90999983E-03   9.91334823E-31
  -5.89499995E-03   2.08188852E-30
  -5.88000007E-03   3.20195558E-30
  -5.86500019E-03   4.30566992E-30
  -5.84999984E-03   5.34289943E-30
  -5.83499996E-03   6.26105493E-30
  -5.82000008E-03   7.00719367E-30
  -5.80500020E-03   7.53037179E-30
  -5.78999985E-03   7.78416271E-30
  -5.77499997E-03   7.72924512E-30
  -5.76000009E-03   7.33593788E-30
  -5.74500021E-03   6.58656380E-30
  -5.72999986E-03   5.47751817E-30
  -5.71499998E-03   4.02090538E-30
  -5.70000010E-03   2.24562905E-30
  -5.68500021E-03   1.97828153E-31
  -5.66999987E-03  -2.05944410E-30
  -5.65499999E-03  -4.44734990E-30
  -5.64000010E-03  -6.87323772E-30
  -5.62500022E-03  -9.23346186E-30
  -5.60999988E-03  -1.14169985E-29
  -5.59500000E-03  -1.33097738E-29
  -5.58000011E-03  -1.47995709E-29
  -5.56500023E-03  -1.57813664E-29
  -5.54999989E-03  -1.61628765E-29
  -5.53500000E-03  -1.58700750E-29
  -5.52000012E-03  -1.48524151E-29
  -5.50499978E-03  -1.30875035E-29
  -5.48999989E-03  -1.05849147E-29
  -5.47500001E-03  -7.38891825E-30
  -5.46000013E-03  -3.57984373E-30
  -5.44499978E-03   7.26094303E-31
  -5.42999990E-03   5.37867922E-30
  -5.41500002E-03   1.01973544E-29
  -5.40000014E-03   1.49766797E-29
  -5.38499979E-03   1.94935076E-29
  -5.36999991E-03   2.35157114E-29
  -5.35500003E-03   2.68122189E-29
  -5.34000015E-03   2.91639960E-29
  -5.32499980E-03   3.03755444E-29
  -5.30999992E-03   3.02864641E-29
  -5.29500004E-03   2.87824723E-29
  -5.28000016E-03   2.58053548E-29
  -5.26499981E-03   2.13612428E-29
  -5.24999993E-03   1.55266305E-29
  -5.23500005E-03   8.45166746E-30
  -5.22000017E-03   3.60223661E-31
  -5.20499982E-03  -8.45355201E-30
  -5.18999994E-03  -1.76323852E-29
  -5.17500006E-03  -2.67668031E-29
  -5.16000018E-03  -3.54096665E-29
  -5.14499983E-03  -4.30940066E-29
  -5.12999995E-03  -4.93535858E-29
  -5.11500007E-03  -5.37455547E-29
  -5.10000018E-03  -5.58742851E-29
  -5.08499984E-03  -5.54153721E-29
  -5.06999996E-03  -5.21386250E-29
  -5.05500007E-03  -4.59288701E-29
  -5.04000019E-03  -3.68033597E-29
  -5.02499985E-03  -2.49245202E-29
  -5.00999996E-03  -1.06070095E-29
  -4.99500008E-03   5.68188492E-30
  -4.98000020E-03   2.33291806E-29
  -4.96499985E-03   4.15909627E-29
  -4.94999997E-03   5.96150309E-29
  -4.93500009E-03   7.64711429E-29
  -4.92000021E-03   9.11882690E-29
  -4.90499986E-03   1.02797690E-28
  -4.88999998E-03   1.10380594E-28
  -4.87500010E-03   1.13118219E-28
  -4.86000022E-03   1.10342545E-28
  -4.84499987E-03   1.01584980E-28
  -4.82999999E-03   8.66206553E-29
  -4.81500011E-03   6.55056260E-29
  -4.80000023E-03   3.86044683E-29
  -4.78499988E-03   6.60597582E-30
  -4.77000000E-03  -2.94751210E-29
  -4.75500012E-03  -6.83119106E-29
  -4.73999977E-03  -1.08295546E-28
  -4.72499989E-03  -1.47582242E-28
  -4.71000001E-03  -1.84156615E-28
  -4.69500013E-03  -2.15909891E-28
  -4.67999978E-03  -2.40731180E-28
  -4.66499990E-03  -2.56608330E-28
  -4.65000002E-03  -2.61735083E-28
  -4.63500014E-03  -2.54619831E-28
  -4.61999979E-03  -2.34191083E-28
  -4.60499991E-03  -1.99894074E-28
  -4.59000003E-03  -1.51773523E-28
  -4.57500014E-03  -9.05365102E-29
  -4.55999980E-03  -1.75911567E-29
  -4.54499992E-03   6.49439466E-29
  -4.53000003E-03   1.54262523E-28
  -4.51500015E-03   2.46928052E-28
  -4.49999981E-03   3.38967017E-28
  -4.48499992E-03   4.25996878E-28
  -4.47000004E-03   5.03386617E-28
  -4.45500016E-03   5.66445704E-28
  -4.43999982E-03   6.10635589E-28
  -4.42499993E-03   6.31796118E-28
  -4.41000005E-03   6.26377851E-28
  -4.39500017E-03   5.91670331E-28
  -4.37999982E-03   5.26015138E-28
  -4.36499994E-03   4.28991891E-28
  -4.35000006E-03   3.01567142E-28
  -4.33500018E-03   1.46193972E-28
  -4.31999983E-03  -3.31461180E-29
  -4.30499995E-03  -2.30967028E-28
  -4.29000007E-03  -4.40373126E-28
  -4.27500019E-03  -6.53228107E-28
  -4.25999984E-03  -8.60397358E-28
  -4.24499996E-03  -1.05205955E-27
  -4.23000008E-03  -1.21808049E-27
  -4.21500020E-03  -1.34843821E-27
  -4.19999985E-03  -1.43368344E-27
  -4.18499997E-03  -1.46542103E-27
  -4.17000009E-03  -1.43678861E-27
  -4.15500021E-03  -1.34291349E-27
  -4.13999986E-03  -1.18132392E-27
  -4.12499998E-03  -9.52290602E-28
  -4.11000010E-03  -6.59079131E-28
  -4.09500021E-03  -3.08090628E-28
  -4.07999987E-03   9.11235517E-29
  -4.06499999E-03   5.25987309E-28
  -4.05000011E-03   9.81172136E-28
  -4.03500022E-03   1.43901634E-27
  -4.01999988E-03   1.88008723E-27
  -4.00500000E-03   2.28387365E-27
  -3.99000011E-03   2.62958771E-27
  -3.97500023E-03   2.89705335E-27
  -3.95999989E-03   3.06764356E-27
  -3.94500000E-03   3.12523637E-27
  -3.93000012E-03   3.05714069E-27
  -3.91499978E-03   2.85495271E-27
  -3.89999989E-03   2.51529898E-27
  -3.88500001E-03   2.04041955E-27
  -3.86999990E-03   1.43855392E-27
  -3.85500002E-03   7.24096359E-28
  -3.83999990E-03  -8.25068689E-29
  -3.82500002E-03  -9.55135297E-28
  -3.80999991E-03  -1.86265294E-27
  -3.79500003E-03  -2.76984144E-27
  -3.77999991E-03  -3.63859011E-27
  -3.76500003E-03  -4.42930723E-27
  -3.74999992E-03  -5.10251296E-27
  -3.73500003E-03  -5.62055345E-27
  -3.71999992E-03  -5.94937055E-27
  -3.70500004E-03  -6.06025673E-27
  -3.68999992E-03  -5.93150832E-27
  -3.67500004E-03  -5.54990417E-27
  -3.65999993E-03  -4.91192370E-27
  -3.64500005E-03  -4.02463930E-27
  -3.62999993E-03  -2.90620652E-27
  -3.61500005E-03  -1.58591048E-27
  -3.59999994E-03  -1.03729311E-28
  -3.58500006E-03   1.49060352E-27
  -3.56999994E-03   3.13902796E-27
  -3.55500006E-03   4.77705660E-27
  -3.53999995E-03   6.33608726E-27
  -3.52500007E-03   7.74606096E-27
  -3.50999995E-03   8.93837106E-27
  -3.49500007E-03   9.84890606E-27
  -3.47999996E-03   1.04211137E-26
  -3.46500007E-03   1.06089350E-26
  -3.44999996E-03   1.03794820E-26
  -3.43500008E-03   9.71531894E-27
  -3.41999996E-03   8.61621768E-27
  -3.40500008E-03   7.10027431E-27
  -3.38999997E-03   5.20429527E-27
  -3.37500009E-03   2.98339510E-27
  -3.35999997E-03   5.09758364E-28
  -3.34500009E-03  -2.12941966E-27
  -3.32999998E-03  -4.83477595E-27
  -3.31500010E-03  -7.49833476E-27
  -3.29999998E-03  -1.00076558E-26
  -3.28500010E-03  -1.22504205E-26
  -3.26999999E-03  -1.41192913E-26
  -3.25500011E-03  -1.55168370E-26
  -3.23999999E-03  -1.63602895E-26
  -3.22500011E-03  -1.65859423E-26
  -3.21000000E-03  -1.61529470E-26
  -3.19500011E-03  -1.50463123E-26
  -3.18000000E-03  -1.32789187E-26
  -3.16499989E-03  -1.08924011E-26
  -3.15000000E-03  -7.95681933E-27
  -3.13499989E-03  -4.56902767E-27
  -3.12000001E-03  -8.49772292E-28
  -3.10499989E-03   3.06042382E-27
  -3.09000001E-03   7.00647536E-27
  -3.07499990E-03   1.08248580E-26
  -3.06000002E-03   1.43504137E-26
  -3.04499990E-03   1.74235677E-26
  -3.03000002E-03   1.98976327E-26
  -3.01499991E-03   2.16458795E-26
  -3.00000003E-03   2.25680394E-26
  -2.98499991E-03   2.25958945E-26
  -2.97000003E-03   2.16976777E-26
  -2.95499992E-03   1.98809865E-26
  -2.94000003E-03   1.71940400E-26
  -2.92499992E-03   1.37251089E-26
  -2.91000004E-03   9.60009209E-27
  -2.89499993E-03   4.97822422E-27
  -2.88000004E-03   4.60698572E-29
  -2.86499993E-03  -4.99000706E-27
  -2.85000005E-03  -9.91262199E-27
  -2.83499993E-03  -1.45030167E-26
  -2.82000005E-03  -1.85511766E-26
  -2.80499994E-03  -2.18659224E-26
  -2.79000006E-03  -2.42845329E-26
  -2.77499994E-03  -2.56813729E-26
  -2.76000006E-03  -2.59750973E-26
  -2.74499995E-03  -2.51339959E-26
  -2.73000007E-03  -2.31791416E-26
  -2.71499995E-03  -2.01851078E-26
  -2.70000007E-03  -1.62780847E-26
  -2.68499996E-03  -1.16313866E-26
  -2.67000007E-03  -6.45845893E-27
  -2.65499996E-03  -1.00361230E-27
  -2.64000008E-03   4.46915164E-27
  -2.62499996E-03   9.68875112E-27
  -2.61000008E-03   1.43905023E-26
  -2.59499997E-03   1.83298318E-26
  -2.58000009E-03   2.12955158E-26
  -2.56499997E-03   2.31217997E-26
  -2.55000009E-03   2.36986635E-26
  -2.53499998E-03   2.29796753E-26
  -2.52000010E-03   2.09868879E-26
  -2.50499998E-03   1.78123806E-26
  -2.49000010E-03   1.36161984E-26
  -2.47499999E-03   8.62063654E-27
  -2.46000011E-03   3.10094635E-27
  -2.44499999E-03  -2.62720996E-27
  -2.43000011E-03  -8.22309609E-27
  -2.41500000E-03  -1.33383622E-26
  -2.40000011E-03  -1.76358406E-26
  -2.38500000E-03  -2.08087748E-26
  -2.36999989E-03  -2.25994644E-26
  -2.35500000E-03  -2.28163642E-26
  -2.33999989E-03  -2.13486268E-26
  -2.32500001E-03  -1.81771625E-26
  -2.30999989E-03  -1.33814522E-26
  -2.29500001E-03  -7.14151772E-27
  -2.27999990E-03   2.65396420E-28
  -2.26500002E-03   8.47354171E-27
  -2.24999990E-03   1.70426666E-26
  -2.23500002E-03   2.54769178E-26
  -2.21999991E-03   3.32479573E-26
  -2.20500003E-03   3.98213657E-26
  -2.18999991E-03   4.46851739E-26
  -2.17500003E-03   4.73791893E-26
  -2.15999992E-03   4.75236495E-26