  -1.49999997E-02   0.00000000    
  -1.49849998E-02   0.00000000    
  -1.49699999E-02   0.00000000    
  -1.49550000E-02   0.00000000    
  -1.49400001E-02   0.00000000    
  -1.49250003E-02   0.00000000    
  -1.49100004E-02   0.00000000    
  -1.48949996E-02   0.00000000    
  -1.48799997E-02   0.00000000    
  -1.48649998E-02   0.00000000    
  -1.48499999E-02   0.00000000    
  -1.48350000E-02   0.00000000    
  -1.48200002E-02   0.00000000    
  -1.48050003E-02   0.00000000    
  -1.47900004E-02   0.00000000    
  -1.47749996E-02   0.00000000    
  -1.47599997E-02   0.00000000    
  -1.47449998E-02   0.00000000    
  -1.47299999E-02   0.00000000    
  -1.47150001E-02   0.00000000    
  -1.47000002E-02   0.00000000    
  -1.46850003E-02   0.00000000    
  -1.46700004E-02   0.00000000    
  -1.46549996E-02   0.00000000    
  -1.46399997E-02   0.00000000    
  -1.46249998E-02   0.00000000    
  -1.46100000E-02   0.00000000    
  -1.45950001E-02   0.00000000    
  -1.45800002E-02   0.00000000    
  -1.45650003E-02   0.00000000    
  -1.45500004E-02   0.00000000    
  -1.45349996E-02   0.00000000    
  -1.45199997E-02   0.00000000    
  -1.45049999E-02   0.00000000    
  -1.44900000E-02   0.00000000    
  -1.44750001E-02   0.00000000    
  -1.44600002E-02   0.00000000    
  -1.44450003E-02   0.00000000    
  -1.44300004E-02   0.00000000    
  -1.44149996E-02   0.00000000    
  -1.43999998E-02   0.00000000    
  -1.43849999E-02   0.00000000    
  -1.43700000E-02   0.00000000    
  -1.43550001E-02   0.00000000    
  -1.43400002E-02   0.00000000    
  -1.43250003E-02   0.00000000    
  -1.43100005E-02   0.00000000    
  -1.42949997E-02   0.00000000    
  -1.42799998E-02   0.00000000    
  -1.42649999E-02   0.00000000    
  -1.42500000E-02   0.00000000    
  -1.42350001E-02   0.00000000    
  -1.42200002E-02   0.00000000    
  -1.42050004E-02   0.00000000    
  -1.41899996E-02   0.00000000    
  -1.41749997E-02   0.00000000    
  -1.41599998E-02   0.00000000    
  -1.41449999E-02   0.00000000    
  -1.41300000E-02   0.00000000    
  -1.41150001E-02   0.00000000    
  -1.41000003E-02   0.00000000    
  -1.40850004E-02   0.00000000    
  -1.40699996E-02   0.00000000    
  -1.40549997E-02   0.00000000    
  -1.40399998E-02   0.00000000    
  -1.40249999E-02   0.00000000    
  -1.40100000E-02   0.00000000    
  -1.39950002E-02   0.00000000    
  -1.39800003E-02   0.00000000    
  -1.39650004E-02   0.00000000    
  -1.39499996E-02   0.00000000    
  -1.39349997E-02   1.32237285E-38
  -1.39199998E-02   0.00000000    
  -1.39049999E-02  -7.96129674E-38
  -1.38900001E-02  -2.01366208E-37
  -1.38750002E-02  -4.95192197E-37
  -1.38600003E-02  -1.06187043E-36
  -1.38450004E-02  -1.93482593E-36
  -1.38299996E-02  -3.19396860E-36
  -1.38149997E-02  -4.91141040E-36
  -1.37999998E-02  -7.16434534E-36
  -1.37850000E-02  -1.00121878E-35
  -1.37700001E-02  -1.35119330E-35
  -1.37550002E-02  -1.77000234E-35
  -1.37400003E-02  -2.25782030E-35
  -1.37250004E-02  -2.80551902E-35
  -1.37099996E-02  -3.39180228E-35
  -1.36949997E-02  -3.98609331E-35
  -1.36799999E-02  -4.51434027E-35
  -1.36650000E-02  -4.87078023E-35
  -1.36500001E-02  -4.91844974E-35
  -1.36350002E-02  -4.47199090E-35
  -1.36200003E-02  -3.28280244E-35
  -1.36050005E-02  -1.01648535E-35
  -1.35899996E-02   2.77004239E-35
  -1.35749998E-02   8.67598344E-35
  -1.35599999E-02   1.74529033E-34
  -1.35450000E-02   3.00339243E-34
  -1.35300001E-02   4.72783874E-34
  -1.35150002E-02   7.01355903E-34
  -1.35000004E-02   9.98329536E-34
  -1.34849995E-02   1.37593570E-33
  -1.34699997E-02   1.84870033E-33
  -1.34549998E-02   2.43238599E-33
  -1.34399999E-02   3.14004810E-33
  -1.34250000E-02   3.98722210E-33
  -1.34100001E-02   4.99324286E-33
  -1.33950002E-02   6.17811692E-33
  -1.33800004E-02   7.56306159E-33
  -1.33649996E-02   9.17038628E-33
  -1.33499997E-02   1.10202537E-32
  -1.33349998E-02   1.31295666E-32
  -1.33199999E-02   1.55107714E-32
  -1.33050000E-02   1.81707491E-32
  -1.32900001E-02   2.11111938E-32
  -1.32750003E-02   2.43199892E-32
  -1.32600004E-02   2.77587290E-32
  -1.32449996E-02   3.13634118E-32
  -1.32299997E-02   3.50450719E-32
  -1.32149998E-02   3.86785366E-32
  -1.31999999E-02   4.20931126E-32
  -1.31850000E-02   4.50546120E-32
  -1.31700002E-02   4.72587432E-32
  -1.31550003E-02   4.83235618E-32
  -1.31400004E-02   4.77675207E-32
  -1.31249996E-02   4.49913880E-32
  -1.31099997E-02   3.92740362E-32
  -1.30949998E-02   2.97719805E-32
  -1.30799999E-02   1.54963481E-32
  -1.30650001E-02  -4.69589753E-33
  -1.30500002E-02  -3.21086693E-32
  -1.30350003E-02  -6.82139254E-32
  -1.30200004E-02  -1.14647551E-31
  -1.30049996E-02  -1.73202134E-31
  -1.29899997E-02  -2.45807083E-31
  -1.29749998E-02  -3.34504667E-31
  -1.29600000E-02  -4.41419899E-31
  -1.29450001E-02  -5.68706753E-31
  -1.29300002E-02  -7.18479874E-31
  -1.29150003E-02  -8.92735015E-31
  -1.29000004E-02  -1.09324426E-30
  -1.28849996E-02  -1.32143291E-30
  -1.28699997E-02  -1.57822850E-30
  -1.28549999E-02  -1.86388547E-30
  -1.28400000E-02  -2.17777895E-30
  -1.28250001E-02  -2.51818500E-30
  -1.28100002E-02  -2.88202890E-30
  -1.27950003E-02  -3.26458667E-30
  -1.27800005E-02  -3.65918038E-30
  -1.27649996E-02  -4.05685595E-30
  -1.27499998E-02  -4.44603448E-30
  -1.27349999E-02  -4.81216617E-30
  -1.27200000E-02  -5.13736847E-30
  -1.27050001E-02  -5.40007999E-30
  -1.26900002E-02  -5.57474002E-30
  -1.26750004E-02  -5.63151019E-30
  -1.26599995E-02  -5.53605064E-30
  -1.26449997E-02  -5.24936356E-30
  -1.26299998E-02  -4.72773183E-30
  -1.26149999E-02  -3.92280107E-30
  -1.26000000E-02  -2.78181509E-30
  -1.25850001E-02  -1.24801220E-30
  -1.25700003E-02   7.38761054E-31
  -1.25550004E-02   3.24118399E-30
  -1.25399996E-02   6.32331777E-30
  -1.25249997E-02   1.00491609E-29
  -1.25099998E-02   1.44808852E-29
  -1.24949999E-02   1.96766981E-29
  -1.24800000E-02   2.56883274E-29
  -1.24650002E-02   3.25581105E-29
  -1.24500003E-02   4.03156841E-29
  -1.24350004E-02   4.89742920E-29
  -1.24199996E-02   5.85266939E-29
  -1.24049997E-02   6.89407267E-29
  -1.23899998E-02   8.01545682E-29
  -1.23749999E-02   9.20717532E-29
  -1.23600001E-02   1.04555980E-28
  -1.23450002E-02   1.17425947E-28
  -1.23300003E-02   1.30450120E-28
  -1.23150004E-02   1.43341826E-28
  -1.22999996E-02   1.55754637E-28
  -1.22849997E-02   1.67278306E-28
  -1.22699998E-02   1.77435565E-28
  -1.22550000E-02   1.85679905E-28
  -1.22400001E-02   1.91394476E-28
  -1.22250002E-02   1.93892732E-28
  -1.22100003E-02   1.92420720E-28
  -1.21950004E-02   1.86161544E-28
  -1.21799996E-02   1.74242144E-28
  -1.21649997E-02   1.55742672E-28
  -1.21499998E-02   1.29708866E-28
  -1.21350000E-02   9.51674810E-29
  -1.21200001E-02   5.11450738E-29
  -1.21050002E-02  -3.30982684E-30
  -1.20900003E-02  -6.91008919E-29
  -1.20750004E-02  -1.47054634E-28
  -1.20599996E-02  -2.37887593E-28
  -1.20449997E-02  -3.42169958E-28
  -1.20299999E-02  -4.60286375E-28
  -1.20150000E-02  -5.92393903E-28
  -1.20000001E-02  -7.38377515E-28
  -1.19850002E-02  -8.97804214E-28
  -1.19700003E-02  -1.06987633E-27
  -1.19550005E-02  -1.25338442E-27
  -1.19399996E-02  -1.44666209E-27
  -1.19249998E-02  -1.64754178E-27
  -1.19099999E-02  -1.85331526E-27
  -1.18950000E-02  -2.06069882E-27
  -1.18800001E-02  -2.26580362E-27
  -1.18650002E-02  -2.46411624E-27
  -1.18500004E-02  -2.65048752E-27
  -1.18349995E-02  -2.81913253E-27
  -1.18199997E-02  -2.96364527E-27
  -1.18049998E-02  -3.07702630E-27
  -1.17899999E-02  -3.15172831E-27
  -1.17750000E-02  -3.17971862E-27
  -1.17600001E-02  -3.15256108E-27
  -1.17450003E-02  -3.06151929E-27
  -1.17300004E-02  -2.89767889E-27
  -1.17149996E-02  -2.65209413E-27
  -1.16999997E-02  -2.31595522E-27
  -1.16849998E-02  -1.88077671E-27
  -1.16699999E-02  -1.33860942E-27
  -1.16550000E-02  -6.82269253E-28
  -1.16400002E-02   9.44133350E-29
  -1.16250003E-02   9.96329012E-28
  -1.16100004E-02   2.02681112E-27
  -1.15949996E-02   3.18735031E-27
  -1.15799997E-02   4.47729948E-27
  -1.15649998E-02   5.89358290E-27
  -1.15499999E-02   7.43040721E-27
  -1.15350001E-02   9.07898552E-27
  -1.15200002E-02   1.08272754E-26
  -1.15050003E-02   1.26597477E-26
  -1.14900004E-02   1.45571846E-26
  -1.14749996E-02   1.64965190E-26
  -1.14599997E-02   1.84507232E-26
  -1.14449998E-02   2.03887510E-26
  -1.14300000E-02   2.22755553E-26
  -1.14150001E-02   2.40721676E-26
  -1.14000002E-02   2.57358737E-26
  -1.13850003E-02   2.72204714E-26
  -1.13700004E-02   2.84766153E-26
  -1.13549996E-02   2.94522791E-26
  -1.13399997E-02   3.00933179E-26
  -1.13249999E-02   3.03441387E-26
  -1.13100000E-02   3.01484796E-26
  -1.12950001E-02   2.94503100E-26
  -1.12800002E-02   2.81948070E-26
  -1.12650003E-02   2.63294715E-26
  -1.12500004E-02   2.38053045E-26
  -1.12349996E-02   2.05780792E-26
  -1.12199998E-02   1.66096774E-26
  -1.12049999E-02   1.18694693E-26
  -1.11900000E-02   6.33572519E-27
  -1.11750001E-02  -2.96281677E-30
  -1.11600002E-02  -7.14629094E-27
  -1.11450003E-02  -1.50809066E-26
  -1.11300005E-02  -2.37791396E-26
  -1.11149997E-02  -3.31978646E-26
  -1.10999998E-02  -4.32775225E-26
  -1.10849999E-02  -5.39412918E-26
  -1.10700000E-02  -6.50945216E-26
  -1.10550001E-02  -7.66244510E-26
  -1.10400002E-02  -8.84001105E-26
  -1.10250004E-02  -1.00272689E-25
  -1.10099996E-02  -1.12076156E-25
  -1.09949997E-02  -1.23628284E-25
  -1.09799998E-02  -1.34732093E-25
  -1.09649999E-02  -1.45177598E-25
  -1.09500000E-02  -1.54744151E-25
  -1.09350001E-02  -1.63202909E-25
  -1.09200003E-02  -1.70319938E-25
  -1.09050004E-02  -1.75859541E-25
  -1.08899996E-02  -1.79587871E-25
  -1.08749997E-02  -1.81276908E-25
  -1.08599998E-02  -1.80708571E-25
  -1.08449999E-02  -1.77679024E-25
  -1.08300000E-02  -1.72002998E-25
  -1.08150002E-02  -1.63518121E-25
  -1.08000003E-02  -1.52089153E-25
  -1.07850004E-02  -1.37612027E-25
  -1.07699996E-02  -1.20017520E-25
  -1.07549997E-02  -9.92746012E-26
  -1.07399998E-02  -7.53933041E-26
  -1.07249999E-02  -4.84269723E-26
  -1.07100001E-02  -1.84738944E-26
  -1.06950002E-02   1.43217482E-26
  -1.06800003E-02   4.97697121E-26
  -1.06650004E-02   8.76343361E-26
  -1.06499996E-02   1.27635907E-25
  -1.06349997E-02   1.69452820E-25
  -1.06199998E-02   2.12724601E-25
  -1.06050000E-02   2.57055404E-25
  -1.05900001E-02   3.02018282E-25
  -1.05750002E-02   3.47159836E-25
  -1.05600003E-02   3.92005396E-25
  -1.05450004E-02   4.36064313E-25
  -1.05299996E-02   4.78835315E-25
  -1.05149997E-02   5.19811758E-25
  -1.04999999E-02   5.58486897E-25
  -1.04850000E-02   5.94358226E-25
  -1.04700001E-02   6.26931920E-25
  -1.04550002E-02   6.55726231E-25
  -1.04400003E-02   6.80273610E-25
  -1.04250005E-02   7.00123322E-25
  -1.04099996E-02   7.14841889E-25
  -1.03949998E-02   7.24013038E-25
  -1.03799999E-02   7.27237162E-25
  -1.03650000E-02   7.24129642E-25
  -1.03500001E-02   7.14319170E-25
  -1.03350002E-02   6.97445140E-25
  -1.03200004E-02   6.73155422E-25
  -1.03049995E-02   6.41104349E-25
  -1.02899997E-02   6.00951279E-25
  -1.02749998E-02   5.52360110E-25
  -1.02599999E-02   4.95000259E-25
  -1.02450000E-02   4.28549574E-25
  -1.02300001E-02   3.52698971E-25
  -1.02150002E-02   2.67159850E-25
  -1.02000004E-02   1.71674277E-25
  -1.01849996E-02   6.60278365E-26
  -1.01699997E-02  -4.99342359E-26
  -1.01549998E-02  -1.76287893E-25
  -1.01399999E-02  -3.13008569E-25
  -1.01250000E-02  -4.59946583E-25
  -1.01100001E-02  -6.16800629E-25
  -1.00950003E-02  -7.83089402E-25
  -1.00800004E-02  -9.58122648E-25
  -1.00649996E-02  -1.14097291E-24
  -1.00499997E-02  -1.33044705E-24
  -1.00349998E-02  -1.52506160E-24
  -1.00199999E-02  -1.72302033E-24
  -1.00050000E-02  -1.92219883E-24
  -9.99000017E-03  -2.12013251E-24
  -9.97500028E-03  -2.31401519E-24
  -9.96000040E-03  -2.50070465E-24
  -9.94499959E-03  -2.67673876E-24
  -9.92999971E-03  -2.83836335E-24
  -9.91499983E-03  -2.98157118E-24
  -9.89999995E-03  -3.10215488E-24
  -9.88500006E-03  -3.19576980E-24
  -9.87000018E-03  -3.25801230E-24
  -9.85500030E-03  -3.28450836E-24
  -9.84000042E-03  -3.27101312E-24
  -9.82499961E-03  -3.21352055E-24
  -9.80999973E-03  -3.10838057E-24
  -9.79499985E-03  -2.95242139E-24
  -9.77999996E-03  -2.74307506E-24
  -9.76500008E-03  -2.47850117E-24
  -9.75000020E-03  -2.15770753E-24
  -9.73500032E-03  -1.78066377E-24
  -9.72000044E-03  -1.34840211E-24
  -9.70499963E-03  -8.63103760E-25
  -9.68999974E-03  -3.28164904E-25
  -9.67499986E-03   2.51758425E-25
  -9.65999998E-03   8.70734708E-25
  -9.64500010E-03   1.52156754E-24
  -9.63000022E-03   2.19584186E-24
  -9.61500034E-03   2.88400132E-24
  -9.60000046E-03   3.57546117E-24
  -9.58499964E-03   4.25875987E-24
  -9.56999976E-03   4.92173948E-24
  -9.55499988E-03   5.55176324E-24
  -9.54000000E-03   6.13596444E-24
  -9.52500012E-03   6.66151777E-24
  -9.51000024E-03   7.11593715E-24
  -9.49500035E-03   7.48738335E-24
  -9.47999954E-03   7.76498982E-24
  -9.46499966E-03   7.93918450E-24
  -9.44999978E-03   8.00200623E-24
  -9.43499990E-03   7.94740917E-24
  -9.42000002E-03   7.77154131E-24
  -9.40500014E-03   7.47299611E-24
  -9.39000025E-03   7.05301603E-24
  -9.37500037E-03   6.51565029E-24
  -9.35999956E-03   5.86785822E-24
  -9.34499968E-03   5.11954398E-24
  -9.32999980E-03   4.28352418E-24
  -9.31499992E-03   3.37542301E-24
  -9.30000003E-03   2.41348700E-24
  -9.28500015E-03   1.41832122E-24
  -9.27000027E-03   4.12549207E-25
  -9.25500039E-03  -5.79604260E-25
  -9.23999958E-03  -1.53279963E-24
  -9.22499970E-03  -2.42113876E-24
  -9.20999981E-03  -3.21877515E-24
  -9.19499993E-03  -3.90057284E-24
  -9.18000005E-03  -4.44279875E-24
  -9.16500017E-03  -4.82383829E-24
  -9.15000029E-03  -5.02492012E-24
  -9.13500041E-03  -5.03082987E-24
  -9.11999959E-03  -4.83059488E-24
  -9.10499971E-03  -4.41813462E-24
  -9.08999983E-03  -3.79284363E-24
  -9.07499995E-03  -2.96009563E-24
  -9.06000007E-03  -1.93165707E-24
  -9.04500019E-03  -7.25983366E-25
  -9.03000031E-03   6.31609570E-25
  -9.01500043E-03   2.10891609E-24
  -8.99999961E-03   3.66696470E-24
  -8.98499973E-03   5.26030595E-24
  -8.96999985E-03   6.83747320E-24
  -8.95499997E-03   8.34161400E-24
  -8.94000009E-03   9.71130452E-24
  -8.92500021E-03   1.08815347E-23
  -8.91000032E-03   1.17848727E-23
  -8.89500044E-03   1.23527832E-23
  -8.87999963E-03   1.25170966E-23
  -8.86499975E-03   1.22116244E-23
  -8.84999987E-03   1.13738715E-23
  -8.83499999E-03   9.94684734E-24
  -8.82000010E-03   7.88094527E-24
  -8.80500022E-03   5.13583751E-24
  -8.79000034E-03   1.68238492E-24
  -8.77500046E-03  -2.49550625E-24
  -8.75999965E-03  -7.39910824E-24
  -8.74499977E-03  -1.30132175E-23
  -8.72999988E-03  -1.93046743E-23
  -8.71500000E-03  -2.62211038E-23
  -8.70000012E-03  -3.36899048E-23
  -8.68500024E-03  -4.16175687E-23
  -8.67000036E-03  -4.98893212E-23
  -8.65499955E-03  -5.83691942E-23
  -8.63999967E-03  -6.69005355E-23
  -8.62499978E-03  -7.53069402E-23
  -8.60999990E-03  -8.33937364E-23
  -8.59500002E-03  -9.09499573E-23
  -8.58000014E-03  -9.77508534E-23
  -8.56500026E-03  -1.03560928E-22
  -8.55000038E-03  -1.08137558E-22
  -8.53499956E-03  -1.11235017E-22
  -8.51999968E-03  -1.12609099E-22
  -8.50499980E-03  -1.12022098E-22
  -8.48999992E-03  -1.09248173E-22
  -8.47500004E-03  -1.04079070E-22
  -8.46000016E-03  -9.63299382E-23
  -8.44500028E-03  -8.58454530E-23
  -8.43000039E-03  -7.25058214E-23
  -8.41499958E-03  -5.62327001E-23
  -8.39999970E-03  -3.69949290E-23
  -8.38499982E-03  -1.48138454E-23
  -8.36999994E-03   1.02318833E-23
  -8.35500006E-03   3.80020993E-23
  -8.34000017E-03   6.82917706E-23
  -8.32500029E-03   1.00828522E-22
  -8.31000041E-03   1.35271318E-22
  -8.29499960E-03   1.71210143E-22
  -8.27999972E-03   2.08167178E-22
  -8.26499984E-03   2.45599158E-22
  -8.24999996E-03   2.82901348E-22
  -8.23500007E-03   3.19412885E-22
  -8.22000019E-03   3.54423441E-22
  -8.20500031E-03   3.87181894E-22
  -8.19000043E-03   4.16905819E-22
  -8.17499962E-03   4.42792751E-22
  -8.15999974E-03   4.64032572E-22
  -8.14499985E-03   4.79821099E-22
  -8.12999997E-03   4.89374570E-22
  -8.11500009E-03   4.91945071E-22
  -8.10000021E-03   4.86836231E-22
  -8.08500033E-03   4.73419537E-22
  -8.07000045E-03   4.51150536E-22
  -8.05499963E-03   4.19585144E-22
  -8.03999975E-03   3.78394892E-22
  -8.02499987E-03   3.27382072E-22
  -8.00999999E-03   2.66493294E-22
  -7.99500011E-03   1.95831956E-22
  -7.98000023E-03   1.15668996E-22
  -7.96500035E-03   2.64517384E-23
  -7.95000046E-03  -7.11894082E-23
  -7.93499965E-03  -1.76436782E-22
  -7.91999977E-03  -2.88283778E-22
  -7.90499989E-03  -4.05535999E-22
  -7.89000001E-03  -5.26815348E-22
  -7.87500013E-03  -6.50567303E-22
  -7.86000025E-03  -7.75071415E-22
  -7.84500036E-03  -8.98455167E-22
  -7.82999955E-03  -1.01871028E-21
  -7.81499967E-03  -1.13371384E-21
  -7.79999979E-03  -1.24125105E-21
  -7.78499991E-03  -1.33904204E-21
  -7.77000003E-03  -1.42477115E-21
  -7.75500014E-03  -1.49611951E-21
  -7.73999980E-03  -1.55079987E-21
  -7.72499992E-03  -1.58659381E-21
  -7.71000003E-03  -1.60139057E-21
  -7.69500015E-03  -1.59322822E-21
  -7.67999981E-03  -1.56033537E-21
  -7.66499992E-03  -1.50117368E-21
  -7.65000004E-03  -1.41448097E-21
  -7.63500016E-03  -1.29931303E-21
  -7.61999981E-03  -1.15508523E-21
  -7.60499993E-03  -9.81611961E-22
  -7.59000005E-03  -7.79143149E-22
  -7.57500017E-03  -5.48398128E-22
  -7.55999982E-03  -2.90594471E-22
  -7.54499994E-03  -7.47273736E-24
  -7.53000006E-03   2.98685837E-22
  -7.51500018E-03   6.25048296E-22
  -7.49999983E-03   9.68226014E-22
  -7.48499995E-03   1.32427971E-21
  -7.47000007E-03   1.68873557E-21
  -7.45500019E-03   2.05660890E-21
  -7.43999984E-03   2.42244063E-21
  -7.42499996E-03   2.78034488E-21
  -7.41000008E-03   3.12406670E-21
  -7.39500020E-03   3.44705427E-21
  -7.37999985E-03   3.74254112E-21
  -7.36499997E-03   4.00363979E-21
  -7.35000009E-03   4.22344729E-21
  -7.33500021E-03   4.39516198E-21
  -7.31999986E-03   4.51220441E-21
  -7.30499998E-03   4.56835091E-21
  -7.29000010E-03   4.55787100E-21
  -7.27500021E-03   4.47566750E-21
  -7.25999987E-03   4.31741912E-21
  -7.24499999E-03   4.07972223E-21
  -7.23000010E-03   3.76022493E-21
  -7.21500022E-03   3.35775835E-21
  -7.19999988E-03   2.87245415E-21
  -7.18499999E-03   2.30584997E-21
  -7.17000011E-03   1.66097705E-21
  -7.15500023E-03   9.42427208E-22
  -7.13999989E-03   1.56397417E-22
  -7.12500000E-03  -6.89293179E-22
  -7.11000012E-03  -1.58521490E-21
  -7.09499978E-03  -2.52036945E-21
  -7.07999989E-03  -3.48226559E-21
  -7.06500001E-03  -4.45702928E-21
  -7.05000013E-03  -5.42954528E-21
  -7.03499978E-03  -6.38363753E-21
  -7.01999990E-03  -7.30227775E-21
  -7.00500002E-03  -8.16783340E-21
  -6.99000014E-03  -8.96233392E-21
  -6.97499979E-03  -9.66777681E-21
  -6.95999991E-03  -1.02664423E-20
  -6.94500003E-03  -1.07412335E-20
  -6.93000015E-03  -1.10760219E-20
  -6.91499980E-03  -1.12560064E-20
  -6.89999992E-03  -1.12680659E-20
  -6.88500004E-03  -1.11011047E-20
  -6.87000016E-03  -1.07463807E-20
  -6.85499981E-03  -1.01978138E-20
  -6.83999993E-03  -9.45226233E-21
  -6.82500005E-03  -8.50976111E-21
  -6.81000017E-03  -7.37371659E-21
  -6.79499982E-03  -6.05105196E-21
  -6.77999994E-03  -4.55228995E-21
  -6.76500006E-03  -2.89158108E-21
  -6.75000018E-03  -1.08666228E-21
  -6.73499983E-03   8.41250963E-22
  -6.71999995E-03   2.86764192E-21
  -6.70500007E-03   4.96494241E-21
  -6.69000018E-03   7.10284805E-21
  -6.67499984E-03   9.24870077E-21
  -6.65999996E-03   1.13679375E-20
  -6.64500007E-03   1.34245807E-20
  -6.63000019E-03   1.53818048E-20
  -6.61499985E-03   1.72025165E-20
  -6.59999996E-03   1.88499905E-20
  -6.58500008E-03   2.02885077E-20
  -6.57000020E-03   2.14840292E-20
  -6.55499985E-03   2.24048444E-20
  -6.53999997E-03   2.30222233E-20
  -6.52500009E-03   2.33110418E-20
  -6.51000021E-03   2.32503700E-20
  -6.49499986E-03   2.28240085E-20
  -6.47999998E-03   2.20209745E-20
  -6.46500010E-03   2.08359074E-20
  -6.45000022E-03   1.92694034E-20
  -6.43499987E-03   1.73282545E-20
  -6.41999999E-03   1.50256017E-20
  -6.40500011E-03   1.23809785E-20
  -6.39000023E-03   9.42025916E-21
  -6.37499988E-03   6.17548771E-21
  -6.36000000E-03   2.68461690E-21
  -6.34500012E-03  -1.00887429E-21
  -6.32999977E-03  -4.85645331E-21
  -6.31499989E-03  -8.80510902E-21
  -6.30000001E-03  -1.27980221E-20
  -6.28500013E-03  -1.67753101E-20
  -6.26999978E-03  -2.06748479E-20
  -6.25499990E-03  -2.44331462E-20
  -6.24000002E-03  -2.79862860E-20
  -6.22500014E-03  -3.12708877E-20
  -6.20999979E-03  -3.42251051E-20
  -6.19499991E-03  -3.67896203E-20
  -6.18000003E-03  -3.89086470E-20
  -6.16500014E-03  -4.05308968E-20
  -6.14999980E-03  -4.16105097E-20
  -6.13499992E-03  -4.21079716E-20
  -6.12000003E-03  -4.19909320E-20
  -6.10500015E-03  -4.12349535E-20
  -6.08999981E-03  -3.98241808E-20
  -6.07499992E-03  -3.77519157E-20
  -6.06000004E-03  -3.50210758E-20
  -6.04500016E-03  -3.16445278E-20
  -6.02999981E-03  -2.76453196E-20
  -6.01499993E-03  -2.30567484E-20
  -6.00000005E-03  -1.79223172E-20
  -5.98500017E-03  -1.22955293E-20
  -5.96999982E-03  -6.23955826E-21
  -5.95499994E-03   1.73247209E-22
  -5.94000006E-03   6.86200198E-21
  -5.92500018E-03   1.37380531E-20
  -5.90999983E-03   2.07059092E-20
  -5.89499995E-03   2.76642866E-20
  -5.88000007E-03   3.45073094E-20
  -5.86500019E-03   4.11258109E-20
  -5.84999984E-03   4.74087453E-20
  -5.83499996E-03   5.32447307E-20
  -5.82000008E-03   5.85236487E-20
  -5.80500020E-03   6.31383278E-20
  -5.78999985E-03   6.69862363E-20
  -5.77499997E-03   6.99713243E-20
  -5.76000009E-03   7.20057363E-20
  -5.74500021E-03   7.30116138E-20
  -5.72999986E-03   7.29228017E-20
  -5.71499998E-03   7.16865092E-20
  -5.70000010E-03   6.92649121E-20
  -5.68500021E-03   6.56365748E-20
  -5.66999987E-03   6.07977233E-20
  -5.65499999E-03   5.47634020E-20
  -5.64000010E-03   4.75683330E-20
  -5.62500022E-03   3.92675529E-20
  -5.60999988E-03   2.99368037E-20
  -5.59500000E-03   1.96725764E-20
  -5.58000011E-03   8.59185798E-21
  -5.56500023E-03  -3.16849050E-21
  -5.54999989E-03  -1.54527080E-20
  -5.53500000E-03  -2.80875122E-20
  -5.52000012E-03  -4.08838089E-20
  -5.50499978E-03  -5.36388661E-20
  -5.48999989E-03  -6.61388221E-20
  -5.47500001E-03  -7.81615239E-20
  -5.46000013E-03  -8.94797975E-20
  -5.44499978E-03  -9.98649402E-20
  -5.42999990E-03  -1.09090583E-19
  -5.41500002E-03  -1.16936649E-19
  -5.40000014E-03  -1.23193611E-19
  -5.38499979E-03  -1.27666771E-19
  -5.36999991E-03  -1.30180599E-19
  -5.35500003E-03  -1.30583061E-19
  -5.34000015E-03  -1.28749732E-19
  -5.32499980E-03  -1.24587798E-19
  -5.30999992E-03  -1.18039682E-19
  -5.29500004E-03  -1.09086382E-19
  -5.28000016E-03  -9.77501173E-20
  -5.26499981E-03  -8.40966418E-20
  -5.24999993E-03  -6.82367460E-20
  -5.23500005E-03  -5.03271063E-20
  -5.22000017E-03  -3.05703239E-20
  -5.20499982E-03  -9.21409490E-21
  -5.18999994E-03   1.34505214E-20
  -5.17500006E-03   3.70916575E-20
  -5.16000018E-03   6.13402827E-20
  -5.14499983E-03   8.57946174E-20
  -5.12999995E-03   1.10025581E-19
  -5.11500007E-03   1.33582948E-19
  -5.10000018E-03   1.56002438E-19
  -5.08499984E-03   1.76813462E-19
  -5.06999996E-03   1.95547345E-19
  -5.05500007E-03   2.11746217E-19
  -5.04000019E-03   2.24972163E-19
  -5.02499985E-03   2.34816517E-19
  -5.00999996E-03   2.40909167E-19
  -4.99500008E-03   2.42927772E-19
  -4.98000020E-03   2.40606523E-19
  -4.96499985E-03   2.33744439E-19
  -4.94999997E-03   2.22212817E-19
  -4.93500009E-03   2.05961924E-19
  -4.92000021E-03   1.85026331E-19
  -4.90499986E-03   1.59529290E-19
  -4.88999998E-03   1.29685351E-19
  -4.87500010E-03   9.58016029E-20
  -4.86000022E-03   5.82772135E-20
  -4.84499987E-03   1.76011675E-20
  -4.82999999E-03  -2.56518595E-20
  -4.81500011E-03  -7.08273270E-20
  -4.80000023E-03  -1.17198581E-19
  -4.78499988E-03  -1.63976472E-19
  -4.77000000E-03  -2.10320481E-19
  -4.75500012E-03  -2.55351586E-19
  -4.73999977E-03  -2.98166402E-19
  -4.72499989E-03  -3.37852564E-19
  -4.71000001E-03  -3.73505263E-19
  -4.69500013E-03  -4.04244380E-19
  -4.67999978E-03  -4.29232059E-19
  -4.66499990E-03  -4.47690465E-19
  -4.65000002E-03  -4.58919287E-19
  -4.63500014E-03  -4.62312899E-19
  -4.61999979E-03  -4.57376440E-19
  -4.60499991E-03  -4.43740936E-19
  -4.59000003E-03  -4.21176664E-19
  -4.57500014E-03  -3.89604705E-19
  -4.55999980E-03  -3.49106408E-19
  -4.54499992E-03  -2.99930313E-19
  -4.53000003E-03  -2.42496553E-19
  -4.51500015E-03  -1.77398072E-19
  -4.49999981E-03  -1.05399115E-19
  -4.48499992E-03  -2.74302494E-20
  -4.47000004E-03   5.54197116E-20
  -4.45500016E-03   1.41914957E-19
  -4.43999982E-03   2.30687335E-19
  -4.42499993E-03   3.20253805E-19
  -4.41000005E-03   4.09037323E-19
  -4.39500017E-03   4.95389783E-19
  -4.37999982E-03   5.77617689E-19
  -4.36499994E-03   6.54010041E-19
  -4.35000006E-03   7.22867606E-19
  -4.33500018E-03   7.82533591E-19
  -4.31999983E-03   8.31425135E-19
  -4.30499995E-03   8.68064738E-19
  -4.29000007E-03   8.91111851E-19
  -4.27500019E-03   8.99393583E-19
  -4.25999984E-03   8.91933655E-19
  -4.24499996E-03   8.67979642E-19
  -4.23000008E-03   8.27027688E-19
  -4.21500020E-03   7.68844372E-19
  -4.19999985E-03   6.93484548E-19
  -4.18499997E-03   6.01305763E-19
  -4.17000009E-03   4.92977673E-19
  -4.15500021E-03   3.69487104E-19
  -4.13999986E-03   2.32137408E-19
  -4.12499998E-03   8.25432806E-20
  -4.11000010E-03  -7.73807107E-20
  -4.09500021E-03  -2.45436844E-19
  -4.07999987E-03  -4.19166486E-19
  -4.06499999E-03  -5.95878218E-19
  -4.05000011E-03  -7.72680577E-19
  -4.03500022E-03  -9.46520338E-19
  -4.01999988E-03  -1.11422562E-18
  -4.00500000E-03  -1.27255254E-18
  -3.99000011E-03  -1.41823570E-18
  -3.97500023E-03  -1.54804215E-18
  -3.95999989E-03  -1.65882676E-18
  -3.94500000E-03  -1.74758944E-18
  -3.93000012E-03  -1.81153340E-18
  -3.91499978E-03  -1.84812167E-18
  -3.89999989E-03  -1.85513492E-18
  -3.88500001E-03  -1.83072337E-18
  -3.86999990E-03  -1.77345993E-18
  -3.85500002E-03  -1.68238497E-18
  -3.83999990E-03  -1.55704829E-18
  -3.82500002E-03  -1.39754491E-18
  -3.80999991E-03  -1.20454279E-18
  -3.79500003E-03  -9.79303470E-19
  -3.77999991E-03  -7.23694166E-19
  -3.76500003E-03  -4.40189746E-19
  -3.74999992E-03  -1.31866342E-19
  -3.73500003E-03   1.97616124E-19
  -3.71999992E-03   5.44042272E-19
  -3.70500004E-03   9.02679041E-19
  -3.68999992E-03   1.26832513E-18
  -3.67500004E-03   1.63536968E-18
  -3.65999993E-03   1.99786183E-18
  -3.64500005E-03   2.34958875E-18
  -3.62999993E-03   2.68416366E-18
  -3.61500005E-03   2.99511946E-18
  -3.59999994E-03   3.27601097E-18
  -3.58500006E-03   3.52052039E-18
  -3.56999994E-03   3.72256794E-18
  -3.55500006E-03   3.87642436E-18
  -3.53999995E-03   3.97682341E-18
  -3.52500007E-03   4.01907249E-18
  -3.50999995E-03   3.99916266E-18
  -3.49500007E-03   3.91386793E-18
  -3.47999996E-03   3.76084448E-18
  -3.46500007E-03   3.53871423E-18
  -3.44999996E-03   3.24714030E-18
  -3.43500008E-03   2.88688826E-18
  -3.41999996E-03   2.45987488E-18
  -3.40500008E-03   1.96919609E-18
  -3.38999997E-03   1.41914146E-18
  -3.37500009E-03   8.15187528E-19
  -3.35999997E-03   1.63971457E-19
  -3.34500009E-03  -5.26756524E-19
  -3.32999998E-03  -1.24819993E-18
  -3.31500010E-03  -1.99060539E-18
  -3.29999998E-03  -2.74337014E-18
  -3.28500010E-03  -3.49517144E-18
  -3.26999999E-03  -4.23411380E-18
  -3.25500011E-03  -4.94789457E-18
  -3.23999999E-03  -5.62398072E-18
  -3.22500011E-03  -6.24980365E-18
  -3.21000000E-03  -6.81295979E-18
  -3.19500011E-03  -7.30142235E-18
  -3.18000000E-03  -7.70375307E-18
  -3.16499989E-03  -8.00932021E-18
  -3.15000000E-03  -8.20850861E-18
  -3.13499989E-03  -8.29292405E-18
  -3.12000001E-03  -8.25559256E-18
  -3.10499989E-03  -8.09113582E-18
  -3.09000001E-03  -7.79594070E-18
  -3.07499990E-03  -7.36829411E-18
  -3.06000002E-03  -6.80850336E-18
  -3.04499990E-03  -6.11898504E-18
  -3.03000002E-03  -5.30431801E-18
  -3.01499991E-03  -4.37127317E-18
  -3.00000003E-03  -3.32879792E-18
  -2.98499991E-03  -2.18797110E-18
  -2.97000003E-03  -9.61916237E-19
  -2.95499992E-03   3.34320942E-19
  -2.94000003E-03   1.68393314E-18
  -2.92499992E-03   3.06854456E-18
  -2.91000004E-03   4.46844580E-18
  -2.89499993E-03   5.86285352E-18
  -2.88000004E-03   7.23019879E-18
  -2.86499993E-03   8.54844841E-18
  -2.85000005E-03   9.79543642E-18
  -2.83499993E-03   1.09492194E-17
  -2.82000005E-03   1.19884337E-17
  -2.80499994E-03   1.28926719E-17
  -2.79000006E-03   1.36428396E-17
  -2.77499994E-03   1.42215128E-17
  -2.76000006E-03   1.46132936E-17
  -2.74499995E-03   1.48051185E-17
  -2.73000007E-03   1.47865665E-17
  -2.71499995E-03   1.45501252E-17
  -2.70000007E-03   1.40914072E-17
  -2.68499996E-03   1.34093438E-17
  -2.67000007E-03   1.25063157E-17
  -2.65499996E-03   1.13882356E-17
  -2.64000008E-03   1.00645820E-17
  -2.62499996E-03   8.54836735E-18
  -2.61000008E-03   6.85604970E-18
  -2.59499997E-03   5.00739119E-18
  -2.58000009E-03   3.02524559E-18
  -2.56499997E-03   9.35299219E-19
  -2.55000009E-03  -1.23424860E-18
  -2.53499998E-03  -3.45305182E-18
  -2.52000010E-03  -5.68903392E-18
  -2.50499998E-03  -7.90884837E-18
  -2.49000010E-03  -1.00783636E-17
  -2.47499999E-03  -1.21631905E-17
  -2.46000011E-03  -1.41292160E-17
  -2.44499999E-03  -1.59431585E-17
  -2.43000011E-03  -1.75731196E-17
  -2.41500000E-03  -1.89891353E-17
  -2.40000011E-03  -2.01637070E-17
  -2.38500000E-03  -2.10723136E-17
  -2.36999989E-03  -2.16938836E-17
  -2.35500000E-03  -2.20112298E-17
  -2.33999989E-03  -2.20114300E-17
  -2.32500001E-03  -2.16861544E-17
  -2.30999989E-03  -2.10319273E-17
  -2.29500001E-03  -2.00503088E-17
  -2.27999990E-03  -1.87480155E-17
  -2.26500002E-03  -1.71369456E-17
  -2.24999990E-03  -1.52341374E-17
  -2.23500002E-03  -1.30616302E-17
  -2.21999991E-03  -1.06462504E-17
  -2.20500003E-03  -8.01931007E-18
  -2.18999991E-03  -5.21622617E-18
  -2.17500003E-03  -2.27607079E-18
  -2.15999992E-03   7.58961218E-19