  -1.49999997E-02   0.00000000    
  -1.49849998E-02   0.00000000    
  -1.49699999E-02   0.00000000    
  -1.49550000E-02   0.00000000    
  -1.49400001E-02   0.00000000    
  -1.49250003E-02   0.00000000    
  -1.49100004E-02   0.00000000    
  -1.48949996E-02   0.00000000    
  -1.48799997E-02   0.00000000    
  -1.48649998E-02   0.00000000    
  -1.48499999E-02   0.00000000    
  -1.48350000E-02   0.00000000    
  -1.48200002E-02   0.00000000    
  -1.48050003E-02   0.00000000    
  -1.47900004E-02   0.00000000    
  -1.47749996E-02   0.00000000    
  -1.47599997E-02   0.00000000    
  -1.47449998E-02   0.00000000    
  -1.47299999E-02   0.00000000    
  -1.47150001E-02   0.00000000    
  -1.47000002E-02   0.00000000    
  -1.46850003E-02   0.00000000    
  -1.46700004E-02   0.00000000    
  -1.46549996E-02   0.00000000    
  -1.46399997E-02   0.00000000    
  -1.46249998E-02   0.00000000    
  -1.46100000E-02   0.00000000    
  -1.45950001E-02   0.00000000    
  -1.45800002E-02   0.00000000    
  -1.45650003E-02   0.00000000    
  -1.45500004E-02   0.00000000    
  -1.45349996E-02   0.00000000    
  -1.45199997E-02   0.00000000    
  -1.45049999E-02   0.00000000    
  -1.44900000E-02   0.00000000    
  -1.44750001E-02   0.00000000    
  -1.44600002E-02   0.00000000    
  -1.44450003E-02   0.00000000    
  -1.44300004E-02   0.00000000    
  -1.44149996E-02   0.00000000    
  -1.43999998E-02   0.00000000    
  -1.43849999E-02   0.00000000    
  -1.43700000E-02   0.00000000    
  -1.43550001E-02   0.00000000    
  -1.43400002E-02   0.00000000    
  -1.43250003E-02   0.00000000    
  -1.43100005E-02   0.00000000    
  -1.42949997E-02   0.00000000    
  -1.42799998E-02   0.00000000    
  -1.42649999E-02   0.00000000    
  -1.42500000E-02   0.00000000    
  -1.42350001E-02   0.00000000    
  -1.42200002E-02   0.00000000    
  -1.42050004E-02   0.00000000    
  -1.41899996E-02   0.00000000    
  -1.41749997E-02   0.00000000    
  -1.41599998E-02   0.00000000    
  -1.41449999E-02   0.00000000    
  -1.41300000E-02   0.00000000    
  -1.41150001E-02   0.00000000    
  -1.41000003E-02   0.00000000    
  -1.40850004E-02   0.00000000    
  -1.40699996E-02   0.00000000    
  -1.40549997E-02   0.00000000    
  -1.40399998E-02   0.00000000    
  -1.40249999E-02   0.00000000    
  -1.40100000E-02   0.00000000    
  -1.39950002E-02   0.00000000    
  -1.39800003E-02   0.00000000    
  -1.39650004E-02   0.00000000    
  -1.39499996E-02   0.00000000    
  -1.39349997E-02   1.76316383E-33
  -1.39199998E-02  -4.06460894E-33
  -1.39049999E-02  -6.55045256E-33
  -1.38900001E-02  -9.68331251E-33
  -1.38750002E-02  -2.94934853E-32
  -1.38600003E-02  -4.60636093E-32
  -1.38450004E-02  -7.03304677E-32
  -1.38299996E-02  -9.75552401E-32
  -1.38149997E-02  -1.31436984E-31
  -1.37999998E-02  -1.68954403E-31
  -1.37850000E-02  -2.10757791E-31
  -1.37700001E-02  -2.55874910E-31
  -1.37550002E-02  -3.02537263E-31
  -1.37400003E-02  -3.47886566E-31
  -1.37250004E-02  -3.82378462E-31
  -1.37099996E-02  -3.99332499E-31
  -1.36949997E-02  -3.93055618E-31
  -1.36799999E-02  -3.11273655E-31
  -1.36650000E-02  -1.63979334E-31
  -1.36500001E-02   1.00419532E-31
  -1.36350002E-02   4.94858765E-31
  -1.36200003E-02   1.09072588E-30
  -1.36050005E-02   1.93098965E-30
  -1.35899996E-02   3.11771383E-30
  -1.35749998E-02   4.75687468E-30
  -1.35599999E-02   6.94568504E-30
  -1.35450000E-02   9.82901131E-30
  -1.35300001E-02   1.31636093E-29
  -1.35150002E-02   1.73126552E-29
  -1.35000004E-02   2.22838189E-29
  -1.34849995E-02   2.80636731E-29
  -1.34699997E-02   3.49716257E-29
  -1.34549998E-02   4.28531119E-29
  -1.34399999E-02   5.15018644E-29
  -1.34250000E-02   6.14546912E-29
  -1.34100001E-02   7.26814364E-29
  -1.33950002E-02   8.53017905E-29
  -1.33800004E-02   9.93575643E-29
  -1.33649996E-02   1.14952403E-28
  -1.33499997E-02   1.31696546E-28
  -1.33349998E-02   1.49545198E-28
  -1.33199999E-02   1.67948759E-28
  -1.33050000E-02   1.86714900E-28
  -1.32900001E-02   2.05344240E-28
  -1.32750003E-02   2.22495151E-28
  -1.32600004E-02   2.36003672E-28
  -1.32449996E-02   2.44620523E-28
  -1.32299997E-02   2.46267434E-28
  -1.32149998E-02   2.38194417E-28
  -1.31999999E-02   2.17082710E-28
  -1.31850000E-02   1.77783869E-28
  -1.31700002E-02   1.16099812E-28
  -1.31550003E-02   2.58764366E-29
  -1.31400004E-02  -1.00015179E-28
  -1.31249996E-02  -2.70135893E-28
  -1.31099997E-02  -4.92177271E-28
  -1.30949998E-02  -7.74763339E-28
  -1.30799999E-02  -1.12865427E-27
  -1.30650001E-02  -1.56364538E-27
  -1.30500002E-02  -2.09139159E-27
  -1.30350003E-02  -2.72264248E-27
  -1.30200004E-02  -3.46850700E-27
  -1.30049996E-02  -4.33877042E-27
  -1.29899997E-02  -5.34188718E-27
  -1.29749998E-02  -6.48446283E-27
  -1.29600000E-02  -7.77090854E-27
  -1.29450001E-02  -9.20067117E-27
  -1.29300002E-02  -1.07690746E-26
  -1.29150003E-02  -1.24649422E-26
  -1.29000004E-02  -1.42696340E-26
  -1.28849996E-02  -1.61555154E-26
  -1.28699997E-02  -1.80838751E-26
  -1.28549999E-02  -2.00037238E-26
  -1.28400000E-02  -2.18487415E-26
  -1.28250001E-02  -2.35387343E-26
  -1.28100002E-02  -2.49738125E-26
  -1.27950003E-02  -2.60338828E-26
  -1.27800005E-02  -2.65786591E-26
  -1.27649996E-02  -2.64447345E-26
  -1.27499998E-02  -2.54457639E-26
  -1.27349999E-02  -2.33717916E-26
  -1.27200000E-02  -1.99885397E-26
  -1.27050001E-02  -1.50396393E-26
  -1.26900002E-02  -8.24835351E-27
  -1.26750004E-02   6.78979380E-28
  -1.26599995E-02   1.20488928E-26
  -1.26449997E-02   2.61760226E-26
  -1.26299998E-02   4.33748913E-26
  -1.26149999E-02   6.39492188E-26
  -1.26000000E-02   8.81822801E-26
  -1.25850001E-02   1.16324776E-25
  -1.25700003E-02   1.48578303E-25
  -1.25550004E-02   1.85078084E-25
  -1.25399996E-02   2.25873064E-25
  -1.25249997E-02   2.70906175E-25
  -1.25099998E-02   3.19990481E-25
  -1.24949999E-02   3.72784528E-25
  -1.24800000E-02   4.28765919E-25
  -1.24650002E-02   4.87205031E-25
  -1.24500003E-02   5.47138245E-25
  -1.24350004E-02   6.07342729E-25
  -1.24199996E-02   6.66310575E-25
  -1.24049997E-02   7.22227008E-25
  -1.23899998E-02   7.72951947E-25
  -1.23749999E-02   8.16005708E-25
  -1.23600001E-02   8.48558842E-25
  -1.23450002E-02   8.67435987E-25
  -1.23300003E-02   8.69120698E-25
  -1.23150004E-02   8.49773194E-25
  -1.22999996E-02   8.05265810E-25
  -1.22849997E-02   7.31222882E-25
  -1.22699998E-02   6.23080110E-25
  -1.22550000E-02   4.76163789E-25
  -1.22400001E-02   2.85778175E-25
  -1.22250002E-02   4.73215039E-26
  -1.22100003E-02  -2.43589425E-25
  -1.21950004E-02  -5.90966174E-25
  -1.21799996E-02  -9.98287403E-25
  -1.21649997E-02  -1.46830966E-24
  -1.21499998E-02  -2.00286498E-24
  -1.21350000E-02  -2.60265191E-24
  -1.21200001E-02  -3.26700275E-24
  -1.21050002E-02  -3.99365054E-24
  -1.20900003E-02  -4.77849062E-24
  -1.20750004E-02  -5.61534148E-24
  -1.20599996E-02  -6.49571420E-24
  -1.20449997E-02  -7.40859981E-24
  -1.20299999E-02  -8.34025953E-24
  -1.20150000E-02  -9.27407599E-24
  -1.20000001E-02  -1.01904034E-23
  -1.19850002E-02  -1.10664910E-23
  -1.19700003E-02  -1.18764516E-23
  -1.19550005E-02  -1.25912992E-23
  -1.19399996E-02  -1.31790519E-23
  -1.19249998E-02  -1.36049097E-23
  -1.19099999E-02  -1.38315684E-23
  -1.18950000E-02  -1.38195619E-23
  -1.18800001E-02  -1.35277560E-23
  -1.18650002E-02  -1.29139402E-23
  -1.18500004E-02  -1.19355499E-23
  -1.18349995E-02  -1.05504521E-23
  -1.18199997E-02  -8.71789829E-24
  -1.18049998E-02  -6.39957256E-24
  -1.17899999E-02  -3.56070198E-24
  -1.17750000E-02  -1.71339171E-25
  -1.17600001E-02   3.79232535E-24
  -1.17450003E-02   8.34659251E-24
  -1.17300004E-02   1.34988001E-23
  -1.17149996E-02   1.92458300E-23
  -1.16999997E-02   2.55727028E-23
  -1.16849998E-02   3.24510839E-23
  -1.16699999E-02   3.98378954E-23
  -1.16550000E-02   4.76741272E-23
  -1.16400002E-02   5.58835565E-23
  -1.16250003E-02   6.43718450E-23
  -1.16100004E-02   7.30257943E-23
  -1.15949996E-02   8.17127622E-23
  -1.15799997E-02   9.02804795E-23
  -1.15649998E-02   9.85573217E-23
  -1.15499999E-02   1.06352599E-22
  -1.15350001E-02   1.13457724E-22
  -1.15200002E-02   1.19647493E-22
  -1.15050003E-02   1.24682104E-22
  -1.14900004E-02   1.28309514E-22
  -1.14749996E-02   1.30268464E-22
  -1.14599997E-02   1.30291991E-22
  -1.14449998E-02   1.28111642E-22
  -1.14300000E-02   1.23462083E-22
  -1.14150001E-02   1.16086272E-22
  -1.14000002E-02   1.05741390E-22
  -1.13850003E-02   9.22048457E-23
  -1.13700004E-02   7.52807564E-23
  -1.13549996E-02   5.48074430E-23
  -1.13399997E-02   3.06641341E-23
  -1.13249999E-02   2.77850734E-24
  -1.13100000E-02  -2.88660929E-23
  -1.12950001E-02  -6.42232931E-23
  -1.12800002E-02  -1.03176916E-22
  -1.12650003E-02  -1.45534512E-22
  -1.12500004E-02  -1.91021267E-22
  -1.12349996E-02  -2.39275497E-22
  -1.12199998E-02  -2.89844763E-22
  -1.12049999E-02  -3.42183122E-22
  -1.11900000E-02  -3.95649464E-22
  -1.11750001E-02  -4.49508898E-22
  -1.11600002E-02  -5.02935001E-22
  -1.11450003E-02  -5.55013806E-22
  -1.11300005E-02  -6.04750716E-22
  -1.11149997E-02  -6.51079696E-22
  -1.10999998E-02  -6.92874279E-22
  -1.10849999E-02  -7.28960993E-22
  -1.10700000E-02  -7.58136729E-22
  -1.10550001E-02  -7.79185962E-22
  -1.10400002E-02  -7.90901745E-22
  -1.10250004E-02  -7.92108589E-22
  -1.10099996E-02  -7.81686588E-22
  -1.09949997E-02  -7.58597121E-22
  -1.09799998E-02  -7.21909409E-22
  -1.09649999E-02  -6.70826008E-22
  -1.09500000E-02  -6.04712497E-22
  -1.09350001E-02  -5.23121459E-22
  -1.09200003E-02  -4.25816918E-22
  -1.09050004E-02  -3.12796551E-22
  -1.08899996E-02  -1.84314145E-22
  -1.08749997E-02  -4.08906113E-23
  -1.08599998E-02   1.16668931E-22
  -1.08449999E-02   2.87270981E-22
  -1.08300000E-02   4.69533696E-22
  -1.08150002E-02   6.61784072E-22
  -1.08000003E-02   8.62077800E-22
  -1.07850004E-02   1.06820662E-21
  -1.07699996E-02   1.27772848E-21
  -1.07549997E-02   1.48799321E-21
  -1.07399998E-02   1.69618009E-21
  -1.07249999E-02   1.89933169E-21
  -1.07100001E-02   2.09441162E-21
  -1.06950002E-02   2.27834056E-21
  -1.06800003E-02   2.44805516E-21
  -1.06650004E-02   2.60056133E-21
  -1.06499996E-02   2.73298071E-21
  -1.06349997E-02   2.84260981E-21
  -1.06199998E-02   2.92696062E-21
  -1.06050000E-02   2.98381051E-21
  -1.05900001E-02   3.01123591E-21
  -1.05750002E-02   3.00763860E-21
  -1.05600003E-02   2.97177297E-21
  -1.05450004E-02   2.90275287E-21
  -1.05299996E-02   2.80004697E-21
  -1.05149997E-02   2.66348118E-21
  -1.04999999E-02   2.49320052E-21
  -1.04850000E-02   2.28964664E-21
  -1.04700001E-02   2.05351788E-21
  -1.04550002E-02   1.78571189E-21
  -1.04400003E-02   1.48727922E-21
  -1.04250005E-02   1.15935724E-21
  -1.04099996E-02   8.03119572E-22
  -1.03949998E-02   4.19703259E-22
  -1.03799999E-02   1.01799384E-23
  -1.03650000E-02  -4.24506475E-22
  -1.03500001E-02  -8.83551174E-22
  -1.03350002E-02  -1.36631638E-21
  -1.03200004E-02  -1.87230979E-21
  -1.03049995E-02  -2.40116274E-21
  -1.02899997E-02  -2.95257939E-21
  -1.02749998E-02  -3.52624349E-21
  -1.02599999E-02  -4.12173073E-21
  -1.02450000E-02  -4.73835793E-21
  -1.02300001E-02  -5.37505597E-21
  -1.02150002E-02  -6.03016080E-21
  -1.02000004E-02  -6.70125187E-21
  -1.01849996E-02  -7.38494411E-21
  -1.01699997E-02  -8.07666259E-21
  -1.01549998E-02  -8.77049264E-21
  -1.01399999E-02  -9.45893551E-21
  -1.01250000E-02  -1.01328082E-20
  -1.01100001E-02  -1.07810666E-20
  -1.00950003E-02  -1.13907682E-20
  -1.00800004E-02  -1.19470148E-20
  -1.00649996E-02  -1.24330174E-20
  -1.00499997E-02  -1.28301981E-20
  -1.00349998E-02  -1.31183882E-20
  -1.00199999E-02  -1.32761164E-20
  -1.00050000E-02  -1.32809978E-20
  -9.99000017E-03  -1.31101649E-20
  -9.97500028E-03  -1.27408570E-20
  -9.96000040E-03  -1.21510465E-20
  -9.94499959E-03  -1.13201468E-20
  -9.92999971E-03  -1.02297806E-20
  -9.91499983E-03  -8.86461028E-21
  -9.89999995E-03  -7.21320073E-21
  -9.88500006E-03  -5.26879275E-21
  -9.87000018E-03  -3.03021239E-21
  -9.85500030E-03  -5.02579168E-22
  -9.84000042E-03   2.30196388E-21
  -9.82499961E-03   5.36372828E-21
  -9.80999973E-03   8.65494342E-21
  -9.79499985E-03   1.21396138E-20
  -9.77999996E-03   1.57732486E-20
  -9.76500008E-03   1.95032823E-20
  -9.75000020E-03   2.32691997E-20
  -9.73500032E-03   2.70033095E-20
  -9.72000044E-03   3.06315676E-20
  -9.70499963E-03   3.40748878E-20
  -9.68999974E-03   3.72503017E-20
  -9.67499986E-03   4.00728359E-20
  -9.65999998E-03   4.24573294E-20
  -9.64500010E-03   4.43204051E-20
  -9.63000022E-03   4.55828442E-20
  -9.61500034E-03   4.61717355E-20
  -9.60000046E-03   4.60229560E-20
  -9.58499964E-03   4.50835115E-20
  -9.56999976E-03   4.33137198E-20
  -9.55499988E-03   4.06894861E-20
  -9.54000000E-03   3.72040442E-20
  -9.52500012E-03   3.28697859E-20
  -9.51000024E-03   2.77193942E-20
  -9.49500035E-03   2.18067654E-20
  -9.47999954E-03   1.52074587E-20
  -9.46499966E-03   8.01847641E-21
  -9.44999978E-03   3.57712171E-22
  -9.43499990E-03  -7.63736263E-21
  -9.42000002E-03  -1.58115719E-20
  -9.40500014E-03  -2.39944028E-20
  -9.39000025E-03  -3.20029652E-20
  -9.37500037E-03  -3.96457813E-20
  -9.35999956E-03  -4.67265055E-20
  -9.34499968E-03  -5.30487567E-20
  -9.32999980E-03  -5.84205355E-20
  -9.31499992E-03  -6.26595970E-20
  -9.30000003E-03  -6.55985504E-20
  -9.28500015E-03  -6.70902155E-20
  -9.27000027E-03  -6.70127449E-20
  -9.25500039E-03  -6.52743796E-20
  -9.23999958E-03  -6.18183350E-20
  -9.22499970E-03  -5.66268848E-20
  -9.20999981E-03  -4.97246797E-20
  -9.19499993E-03  -4.11817038E-20
  -9.18000005E-03  -3.11150838E-20
  -9.16500017E-03  -1.96902283E-20
  -9.15000029E-03  -7.12072937E-21
  -9.13500041E-03   6.33281036E-21
  -9.11999959E-03   2.03651544E-20
  -9.10499971E-03   3.46295060E-20
  -9.08999983E-03   4.87426225E-20
  -9.07499995E-03   6.22904224E-20
  -9.06000007E-03   7.48347327E-20
  -9.04500019E-03   8.59217705E-20
  -9.03000031E-03   9.50906217E-20
  -9.01500043E-03   1.01883571E-19
  -8.99999961E-03   1.05856248E-19
  -8.98499973E-03   1.06589292E-19
  -8.96999985E-03   1.03699659E-19
  -8.95499997E-03   9.68525100E-20
  -8.94000009E-03   8.57728069E-20
  -8.92500021E-03   7.02578843E-20
  -8.91000032E-03   5.01872773E-20
  -8.89500044E-03   2.55340832E-20
  -8.87999963E-03  -3.62549668E-21
  -8.86499975E-03  -3.71040620E-20
  -8.84999987E-03  -7.45963626E-20
  -8.83499999E-03  -1.15673428E-19
  -8.82000010E-03  -1.59780275E-19
  -8.80500022E-03  -2.06234105E-19
  -8.79000034E-03  -2.54226258E-19
  -8.77500046E-03  -3.02825937E-19
  -8.75999965E-03  -3.50987546E-19
  -8.74499977E-03  -3.97560270E-19
  -8.72999988E-03  -4.41300857E-19
  -8.71500000E-03  -4.80889876E-19
  -8.70000012E-03  -5.14950537E-19
  -8.68500024E-03  -5.42070739E-19
  -8.67000036E-03  -5.60829127E-19
  -8.65499955E-03  -5.69821201E-19
  -8.63999967E-03  -5.67691004E-19
  -8.62499978E-03  -5.53163076E-19
  -8.60999990E-03  -5.25076313E-19
  -8.59500002E-03  -4.82419281E-19
  -8.58000014E-03  -4.24365730E-19
  -8.56500026E-03  -3.50310653E-19
  -8.55000038E-03  -2.59905267E-19
  -8.53499956E-03  -1.53089185E-19
  -8.51999968E-03  -3.01222925E-20
  -8.50499980E-03   1.08388784E-19
  -8.48999992E-03   2.61466854E-19
  -8.47500004E-03   4.27748640E-19
  -8.46000016E-03   6.05469428E-19
  -8.44500028E-03   7.92461826E-19
  -8.43000039E-03   9.86156144E-19
  -8.41499958E-03   1.18359309E-18
  -8.39999970E-03   1.38144311E-18
  -8.38499982E-03   1.57603436E-18
  -8.36999994E-03   1.76339583E-18
  -8.35500006E-03   1.93929951E-18
  -8.34000017E-03   2.09932256E-18
  -8.32500029E-03   2.23891136E-18
  -8.31000041E-03   2.35345912E-18
  -8.29499960E-03   2.43838328E-18
  -8.27999972E-03   2.48921993E-18
  -8.26499984E-03   2.50171326E-18
  -8.24999996E-03   2.47191552E-18
  -8.23500007E-03   2.39628702E-18
  -8.22000019E-03   2.27179220E-18
  -8.20500031E-03   2.09600226E-18
  -8.19000043E-03   1.86718632E-18
  -8.17499962E-03   1.58440118E-18
  -8.15999974E-03   1.24757283E-18
  -8.14499985E-03   8.57564507E-19
  -8.12999997E-03   4.16237491E-19
  -8.11500009E-03  -7.35024162E-20
  -8.10000021E-03  -6.07676243E-19
  -8.08500033E-03  -1.18121826E-18
  -8.07000045E-03  -1.78797716E-18
  -8.05499963E-03  -2.42074324E-18
  -8.03999975E-03  -3.07128791E-18
  -8.02499987E-03  -3.73042244E-18
  -8.00999999E-03  -4.38808231E-18
  -7.99500011E-03  -5.03342960E-18
  -7.98000023E-03  -5.65496442E-18
  -7.96500035E-03  -6.24066827E-18
  -7.95000046E-03  -6.77815410E-18
  -7.93499965E-03  -7.25483223E-18
  -7.91999977E-03  -7.65809932E-18
  -7.90499989E-03  -7.97552409E-18
  -7.89000001E-03  -8.19505038E-18
  -7.87500013E-03  -8.30521181E-18
  -7.86000025E-03  -8.29534934E-18
  -7.84500036E-03  -8.15581886E-18
  -7.82999955E-03  -7.87821705E-18
  -7.81499967E-03  -7.45560385E-18
  -7.79999979E-03  -6.88269980E-18
  -7.78499991E-03  -6.15609484E-18
  -7.77000003E-03  -5.27445224E-18
  -7.75500014E-03  -4.23866785E-18
  -7.73999980E-03  -3.05205596E-18
  -7.72499992E-03  -1.72047022E-18
  -7.71000003E-03  -2.52440298E-19
  -7.69500015E-03   1.34074252E-18
  -7.67999981E-03   3.04496268E-18
  -7.66499992E-03   4.84324712E-18
  -7.65000004E-03   6.71578055E-18
  -7.63500016E-03   8.63994286E-18
  -7.61999981E-03   1.05904256E-17
  -7.60499993E-03   1.25393500E-17
  -7.59000005E-03   1.44564933E-17
  -7.57500017E-03   1.63095152E-17
  -7.55999982E-03   1.80642978E-17
  -7.54499994E-03   1.96852707E-17
  -7.53000006E-03   2.11358874E-17
  -7.51500018E-03   2.23791068E-17
  -7.49999983E-03   2.33779075E-17
  -7.48499995E-03   2.40959450E-17
  -7.47000007E-03   2.44981930E-17
  -7.45500019E-03   2.45516206E-17
  -7.43999984E-03   2.42259926E-17
  -7.42499996E-03   2.34945896E-17
  -7.41000008E-03   2.23350180E-17
  -7.39500020E-03   2.07300197E-17
  -7.37999985E-03   1.86682306E-17
  -7.36499997E-03   1.61449426E-17
  -7.35000009E-03   1.31628109E-17
  -7.33500021E-03   9.73248136E-18
  -7.31999986E-03   5.87315316E-18
  -7.30499998E-03   1.61303032E-18
  -7.29000010E-03  -3.01038301E-18
  -7.27500021E-03  -7.95009242E-18
  -7.25999987E-03  -1.31496447E-17
  -7.24499999E-03  -1.85432916E-17
  -7.23000010E-03  -2.40563577E-17
  -7.21500022E-03  -2.96058695E-17
  -7.19999988E-03  -3.51013696E-17
  -7.18499999E-03  -4.04458629E-17
  -7.17000011E-03  -4.55372059E-17
  -7.15500023E-03  -5.02694433E-17
  -7.13999989E-03  -5.45345355E-17
  -7.12500000E-03  -5.82242308E-17
  -7.11000012E-03  -6.12320250E-17
  -7.09499978E-03  -6.34553012E-17
  -7.07999989E-03  -6.47976036E-17
  -7.06500001E-03  -6.51708936E-17
  -7.05000013E-03  -6.44978929E-17
  -7.03499978E-03  -6.27143128E-17
  -7.01999990E-03  -5.97710454E-17
  -7.00500002E-03  -5.56362739E-17
  -6.99000014E-03  -5.02972333E-17
  -6.97499979E-03  -4.37618811E-17
  -6.95999991E-03  -3.60601943E-17
  -6.94500003E-03  -2.72451307E-17
  -6.93000015E-03  -1.73931979E-17
  -6.91499980E-03  -6.60468274E-18
  -6.89999992E-03   4.99673131E-18
  -6.88500004E-03   1.72647764E-17
  -6.87000016E-03   3.00317682E-17
  -6.85499981E-03   4.31104896E-17
  -6.83999993E-03   5.62964037E-17
  -6.82500005E-03   6.93704300E-17
  -6.81000017E-03   8.21020896E-17
  -6.79499982E-03   9.42531942E-17
  -6.77999994E-03   1.05581744E-16
  -6.76500006E-03   1.15846129E-16
  -6.75000018E-03   1.24809696E-16
  -6.73499983E-03   1.32245388E-16
  -6.71999995E-03   1.37940176E-16
  -6.70500007E-03   1.41700049E-16
  -6.69000018E-03   1.43354225E-16
  -6.67499984E-03   1.42759714E-16
  -6.65999996E-03   1.39805064E-16
  -6.64500007E-03   1.34414150E-16
  -6.63000019E-03   1.26549025E-16
  -6.61499985E-03   1.16212616E-16
  -6.59999996E-03   1.03450490E-16
  -6.58500008E-03   8.83520083E-17
  -6.57000020E-03   7.10508309E-17
  -6.55499985E-03   5.17243813E-17
  -6.53999997E-03   3.05926496E-17
  -6.52500009E-03   7.91634594E-18
  -6.51000021E-03  -1.60061533E-17
  -6.49499986E-03  -4.08421122E-17
  -6.47999998E-03  -6.62291488E-17
  -6.46500010E-03  -9.17798050E-17
  -6.45000022E-03  -1.17087508E-16
  -6.43499987E-03  -1.41732382E-16
  -6.41999999E-03  -1.65288037E-16
  -6.40500011E-03  -1.87328311E-16
  -6.39000023E-03  -2.07434385E-16
  -6.37499988E-03  -2.25201761E-16
  -6.36000000E-03  -2.40247661E-16
  -6.34500012E-03  -2.52217692E-16
  -6.32999977E-03  -2.60792630E-16
  -6.31499989E-03  -2.65694807E-16
  -6.30000001E-03  -2.66693723E-16
  -6.28500013E-03  -2.63611450E-16
  -6.26999978E-03  -2.56326808E-16
  -6.25499990E-03  -2.44779419E-16
  -6.24000002E-03  -2.28972408E-16
  -6.22500014E-03  -2.08974595E-16
  -6.20999979E-03  -1.84921335E-16
  -6.19499991E-03  -1.57014577E-16
  -6.18000003E-03  -1.25522474E-16
  -6.16500014E-03  -9.07770239E-17
  -6.14999980E-03  -5.31715635E-17
  -6.13499992E-03  -1.31570984E-17
  -6.12000003E-03   2.87621452E-17
  -6.10500015E-03   7.20348450E-17
  -6.08999981E-03   1.16067945E-16
  -6.07499992E-03   1.60233845E-16
  -6.06000004E-03   2.03878236E-16
  -6.04500016E-03   2.46328007E-16
  -6.02999981E-03   2.86899827E-16
  -6.01499993E-03   3.24909715E-16
  -6.00000005E-03   3.59681477E-16
  -5.98500017E-03   3.90556913E-16
  -5.96999982E-03   4.16905858E-16
  -5.95499994E-03   4.38135124E-16
  -5.94000006E-03   4.53699010E-16
  -5.92500018E-03   4.63108064E-16
  -5.90999983E-03   4.65939431E-16
  -5.89499995E-03   4.61844556E-16
  -5.88000007E-03   4.50558530E-16
  -5.86500019E-03   4.31907817E-16
  -5.84999984E-03   4.05816767E-16
  -5.83499996E-03   3.72314788E-16
  -5.82000008E-03   3.31540872E-16
  -5.80500020E-03   2.83748149E-16
  -5.78999985E-03   2.29306695E-16
  -5.77499997E-03   1.68704968E-16
  -5.76000009E-03   1.02550239E-16
  -5.74500021E-03   3.15663272E-17
  -5.72999986E-03  -4.34088901E-17
  -5.71499998E-03  -1.21429810E-16
  -5.70000010E-03  -2.01449634E-16
  -5.68500021E-03  -2.82329660E-16
  -5.66999987E-03  -3.62850253E-16
  -5.65499999E-03  -4.41725511E-16
  -5.64000010E-03  -5.17617228E-16
  -5.62500022E-03  -5.89153290E-16
  -5.60999988E-03  -6.54946627E-16
  -5.59500000E-03  -7.13617052E-16
  -5.58000011E-03  -7.63812490E-16
  -5.56500023E-03  -8.04234437E-16
  -5.54999989E-03  -8.33662056E-16
  -5.53500000E-03  -8.50978321E-16
  -5.52000012E-03  -8.55194957E-16
  -5.50499978E-03  -8.45479859E-16
  -5.48999989E-03  -8.21179966E-16
  -5.47500001E-03  -7.81846245E-16
  -5.46000013E-03  -7.27255818E-16
  -5.44499978E-03  -6.57430498E-16
  -5.42999990E-03  -5.72654518E-16
  -5.41500002E-03  -4.73487500E-16
  -5.40000014E-03  -3.60773752E-16
  -5.38499979E-03  -2.35646975E-16
  -5.36999991E-03  -9.95302160E-17
  -5.35500003E-03   4.58701163E-17
  -5.34000015E-03   1.98575148E-16
  -5.32499980E-03   3.56349964E-16
  -5.30999992E-03   5.16729485E-16
  -5.29500004E-03   6.77044181E-16
  -5.28000016E-03   8.34457314E-16
  -5.26499981E-03   9.86006384E-16
  -5.24999993E-03   1.12864652E-15
  -5.23500005E-03   1.25930506E-15
  -5.22000017E-03   1.37493278E-15
  -5.20499982E-03   1.47256530E-15
  -5.18999994E-03   1.54938240E-15
  -5.17500006E-03   1.60276951E-15
  -5.16000018E-03   1.63038045E-15
  -5.14499983E-03   1.63019855E-15
  -5.12999995E-03   1.60059591E-15
  -5.11500007E-03   1.54038670E-15
  -5.10000018E-03   1.44887993E-15
  -5.08499984E-03   1.32592060E-15
  -5.06999996E-03   1.17192800E-15
  -5.05500007E-03   9.87921314E-16
  -5.04000019E-03   7.75538602E-16
  -5.02499985E-03   5.37041706E-16
  -5.00999996E-03   2.75312654E-16
  -4.99500008E-03  -6.16444730E-18
  -4.98000020E-03  -3.03334039E-16
  -4.96499985E-03  -6.11611151E-16
  -4.94999997E-03  -9.25937243E-16
  -4.93500009E-03  -1.24085001E-15
  -4.92000021E-03  -1.55056030E-15
  -4.90499986E-03  -1.84904497E-15
  -4.88999998E-03  -2.13014810E-15
  -4.87500010E-03  -2.38768529E-15
  -4.86000022E-03  -2.61556701E-15
  -4.84499987E-03  -2.80790850E-15
  -4.82999999E-03  -2.95916212E-15
  -4.81500011E-03  -3.06423274E-15
  -4.80000023E-03  -3.11860358E-15
  -4.78499988E-03  -3.11845111E-15
  -4.77000000E-03  -3.06075419E-15
  -4.75500012E-03  -2.94339418E-15
  -4.73999977E-03  -2.76524388E-15
  -4.72499989E-03  -2.52624231E-15
  -4.71000001E-03  -2.22745207E-15
  -4.69500013E-03  -1.87109853E-15
  -4.67999978E-03  -1.46059227E-15
  -4.66499990E-03  -1.00052580E-15
  -4.65000002E-03  -4.96649563E-16
  -4.63500014E-03   4.41696646E-17
  -4.61999979E-03   6.14022495E-16
  -4.60499991E-03   1.20404293E-15
  -4.59000003E-03   1.80452640E-15
  -4.57500014E-03   2.40506853E-15
  -4.55999980E-03   2.99470680E-15
  -4.54499992E-03   3.56210516E-15
  -4.53000003E-03   4.09573210E-15
  -4.51500015E-03   4.58406481E-15
  -4.49999981E-03   5.01579665E-15
  -4.48499992E-03   5.38005428E-15
  -4.47000004E-03   5.66660637E-15
  -4.45500016E-03   5.86609152E-15
  -4.43999982E-03   5.97022110E-15
  -4.42499993E-03   5.97198038E-15
  -4.41000005E-03   5.86582471E-15
  -4.39500017E-03   5.64783654E-15
  -4.37999982E-03   5.31588772E-15
  -4.36499994E-03   4.86976140E-15
  -4.35000006E-03   4.31124862E-15
  -4.33500018E-03   3.64421822E-15
  -4.31999983E-03   2.87464665E-15
  -4.30499995E-03   2.01062836E-15
  -4.29000007E-03   1.06232553E-15
  -4.27500019E-03   4.19071834E-17
  -4.25999984E-03  -1.03657002E-15
  -4.24499996E-03  -2.15730800E-15
  -4.23000008E-03  -3.30295543E-15
  -4.21500020E-03  -4.45482621E-15
  -4.19999985E-03  -5.59314913E-15
  -4.18499997E-03  -6.69735568E-15
  -4.17000009E-03  -7.74638651E-15
  -4.15500021E-03  -8.71902597E-15
  -4.13999986E-03  -9.59425918E-15
  -4.12499998E-03  -1.03516210E-14
  -4.11000010E-03  -1.09715796E-14
  -4.09500021E-03  -1.14359062E-14
  -4.07999987E-03  -1.17280538E-14
  -4.06499999E-03  -1.18335051E-14
  -4.05000011E-03  -1.17401291E-14
  -4.03500022E-03  -1.14385015E-14
  -4.01999988E-03  -1.09221968E-14
  -4.00500000E-03  -1.01880488E-14
  -3.99000011E-03  -9.23637760E-15
  -3.97500023E-03  -8.07115418E-15
  -3.95999989E-03  -6.70012887E-15
  -3.94500000E-03  -5.13490643E-15
  -3.93000012E-03  -3.39094288E-15
  -3.91499978E-03  -1.48750908E-15
  -3.89999989E-03   5.52431977E-16
  -3.88500001E-03   2.70241923E-15
  -3.86999990E-03   4.93270907E-15
  -3.85500002E-03   7.21063224E-15
  -3.83999990E-03   9.50092547E-15
  -3.82500002E-03   1.17661974E-14
  -3.80999991E-03   1.39674208E-14
  -3.79500003E-03   1.60644796E-14
  -3.77999991E-03   1.80167703E-14
  -3.76500003E-03   1.97838131E-14
  -3.74999992E-03   2.13259620E-14
  -3.73500003E-03   2.26050461E-14
  -3.71999992E-03   2.35851123E-14
  -3.70500004E-03   2.42331366E-14
  -3.68999992E-03   2.45196726E-14
  -3.67500004E-03   2.44195906E-14
  -3.65999993E-03   2.39126752E-14
  -3.64500005E-03   2.29842577E-14
  -3.62999993E-03   2.16257371E-14
  -3.61500005E-03   1.98350671E-14
  -3.59999994E-03   1.76171469E-14
  -3.58500006E-03   1.49841179E-14
  -3.56999994E-03   1.19555702E-14
  -3.55500006E-03   8.55862334E-15
  -3.53999995E-03   4.82789256E-15
  -3.52500007E-03   8.05330286E-16
  -3.50999995E-03  -3.46003790E-15
  -3.49500007E-03  -7.91257183E-15
  -3.47999996E-03  -1.24905418E-14
  -3.46500007E-03  -1.71268351E-14
  -3.44999996E-03  -2.17497224E-14
  -3.43500008E-03  -2.62838542E-14
  -3.41999996E-03  -3.06512763E-14
  -3.40500008E-03  -3.47725592E-14
  -3.38999997E-03  -3.85680325E-14
  -3.37500009E-03  -4.19591425E-14
  -3.35999997E-03  -4.48697035E-14
  -3.34500009E-03  -4.72274028E-14
  -3.32999998E-03  -4.89651044E-14
  -3.31500010E-03  -5.00222693E-14
  -3.29999998E-03  -5.03463136E-14
  -3.28500010E-03  -4.98938185E-14
  -3.26999999E-03  -4.86318478E-14
  -3.25500011E-03  -4.65389005E-14
  -3.23999999E-03  -4.36059371E-14
  -3.22500011E-03  -3.98371149E-14
  -3.21000000E-03  -3.52503908E-14
  -3.19500011E-03  -2.98779149E-14
  -3.18000000E-03  -2.37662148E-14
  -3.16499989E-03  -1.69760768E-14
  -3.15000000E-03  -9.58232280E-15
  -3.13499989E-03  -1.67311856E-15
  -3.12000001E-03   6.65068290E-15
  -3.10499989E-03   1.52767745E-14
  -3.09000001E-03   2.40826019E-14
  -3.07499990E-03   3.29369609E-14
  -3.06000002E-03   4.17017630E-14
  -3.04499990E-03   5.02340682E-14
  -3.03000002E-03   5.83881630E-14
  -3.01499991E-03   6.60178428E-14
  -3.00000003E-03   7.29788612E-14
  -2.98499991E-03   7.91313832E-14
  -2.97000003E-03   8.43426010E-14
  -2.95499992E-03   8.84890509E-14
  -2.94000003E-03   9.14591821E-14
  -2.92499992E-03   9.31557281E-14
  -2.91000004E-03   9.34978278E-14
  -2.89499993E-03   9.24231530E-14
  -2.88000004E-03   8.98896165E-14
  -2.86499993E-03   8.58770181E-14
  -2.85000005E-03   8.03881023E-14
  -2.83499993E-03   7.34495811E-14
  -2.82000005E-03   6.51125340E-14
  -2.80499994E-03   5.54526043E-14
  -2.79000006E-03   4.45695997E-14
  -2.77499994E-03   3.25869397E-14
  -2.76000006E-03   1.96503156E-14
  -2.74499995E-03   5.92631260E-15
  -2.73000007E-03  -8.39967845E-15
  -2.71499995E-03  -2.31258087E-14
  -2.70000007E-03  -3.80364651E-14
  -2.68499996E-03  -5.29053120E-14
  -2.67000007E-03  -6.74985512E-14
  -2.65499996E-03  -8.15788002E-14
  -2.64000008E-03  -9.49083883E-14
  -2.62499996E-03  -1.07253622E-13
  -2.61000008E-03  -1.18388670E-13
  -2.59499997E-03  -1.28099232E-13
  -2.58000009E-03  -1.36186947E-13
  -2.56499997E-03  -1.42472717E-13
  -2.55000009E-03  -1.46800378E-13
  -2.53499998E-03  -1.49040014E-13
  -2.52000010E-03  -1.49090972E-13
  -2.50499998E-03  -1.46884160E-13
  -2.49000010E-03  -1.42384490E-13
  -2.47499999E-03  -1.35592302E-13
  -2.46000011E-03  -1.26544364E-13
  -2.44499999E-03  -1.15314523E-13
  -2.43000011E-03  -1.02013565E-13
  -2.41500000E-03  -8.67885408E-14
  -2.40000011E-03  -6.98211833E-14
  -2.38500000E-03  -5.13264426E-14
  -2.36999989E-03  -3.15495954E-14
  -2.35500000E-03  -1.07631697E-14
  -2.33999989E-03   1.07364941E-14
  -2.32500001E-03   3.26334418E-14
  -2.30999989E-03   5.45968673E-14
  -2.29500001E-03   7.62855694E-14
  -2.27999990E-03   9.73536844E-14
  -2.26500002E-03   1.17455674E-13
  -2.24999990E-03   1.36252121E-13
  -2.23500002E-03   1.53415488E-13
  -2.21999991E-03   1.68635220E-13
  -2.20500003E-03   1.81623569E-13
  -2.18999991E-03   1.92120828E-13
  -2.17500003E-03   1.99899898E-13
  -2.15999992E-03   2.04771082E-13