  -1.49999997E-02   0.00000000    
  -1.49849998E-02   0.00000000    
  -1.49699999E-02   0.00000000    
  -1.49550000E-02   0.00000000    
  -1.49400001E-02   0.00000000    
  -1.49250003E-02   0.00000000    
  -1.49100004E-02   0.00000000    
  -1.48949996E-02   0.00000000    
  -1.48799997E-02   0.00000000    
  -1.48649998E-02   0.00000000    
  -1.48499999E-02   0.00000000    
  -1.48350000E-02   0.00000000    
  -1.48200002E-02   0.00000000    
  -1.48050003E-02   0.00000000    
  -1.47900004E-02   0.00000000    
  -1.47749996E-02   0.00000000    
  -1.47599997E-02   0.00000000    
  -1.47449998E-02   0.00000000    
  -1.47299999E-02   0.00000000    
  -1.47150001E-02  -1.35557171E-38
  -1.47000002E-02  -1.38677305E-37
  -1.46850003E-02  -5.58739131E-37
  -1.46700004E-02  -1.64761705E-36
  -1.46549996E-02  -4.20823498E-36
  -1.46399997E-02  -9.88662998E-36
  -1.46249998E-02  -2.19395675E-35
  -1.46100000E-02  -4.66236875E-35
  -1.45950001E-02  -9.51401276E-35
  -1.45800002E-02  -1.87686959E-34
  -1.45650003E-02  -3.59589668E-34
  -1.45500004E-02  -6.71659243E-34
  -1.45349996E-02  -1.22564002E-33
  -1.45199997E-02  -2.18831185E-33
  -1.45049999E-02  -3.82934072E-33
  -1.44900000E-02  -6.57583589E-33
  -1.44750001E-02  -1.10925267E-32
  -1.44600002E-02  -1.83962309E-32
  -1.44450003E-02  -3.00171034E-32
  -1.44300004E-02  -4.82230365E-32
  -1.44149996E-02  -7.63246307E-32
  -1.43999998E-02  -1.19082773E-31
  -1.43849999E-02  -1.83258923E-31
  -1.43700000E-02  -2.78325065E-31
  -1.43550001E-02  -4.17362890E-31
  -1.43400002E-02  -6.18215378E-31
  -1.43250003E-02  -9.04900065E-31
  -1.43100005E-02  -1.30934582E-30
  -1.42949997E-02  -1.87347976E-30
  -1.42799998E-02  -2.65164010E-30
  -1.42649999E-02  -3.71335355E-30
  -1.42500000E-02  -5.14639853E-30
  -1.42350001E-02  -7.06010032E-30
  -1.42200002E-02  -9.58871920E-30
  -1.42050004E-02  -1.28946472E-29
  -1.41899996E-02  -1.71711475E-29
  -1.41749997E-02  -2.26441514E-29
  -1.41599998E-02  -2.95725008E-29
  -1.41449999E-02  -3.82459113E-29
  -1.41300000E-02  -4.89795642E-29
  -1.41150001E-02  -6.21042231E-29
  -1.41000003E-02  -7.79502812E-29
  -1.40850004E-02  -9.68240756E-29
  -1.40699996E-02  -1.18974443E-28
  -1.40549997E-02  -1.44547181E-28
  -1.40399998E-02  -1.73524880E-28
  -1.40249999E-02  -2.05649475E-28
  -1.40100000E-02  -2.40324592E-28
  -1.39950002E-02  -2.76494736E-28
  -1.39800003E-02  -3.12498865E-28
  -1.39650004E-02  -3.45895453E-28
  -1.39499996E-02  -3.73257694E-28
  -1.39349997E-02  -3.89937234E-28
  -1.39199998E-02  -3.89797267E-28
  -1.39049999E-02  -3.64915865E-28
  -1.38900001E-02  -3.05263676E-28
  -1.38750002E-02  -1.98362431E-28
  -1.38600003E-02  -2.89327159E-29
  -1.38450004E-02   2.21455847E-28
  -1.38299996E-02   5.74715070E-28
  -1.38149997E-02   1.05652867E-27
  -1.37999998E-02   1.69657538E-27
  -1.37850000E-02   2.52865415E-27
  -1.37700001E-02   3.59067143E-27
  -1.37550002E-02   4.92445033E-27
  -1.37400003E-02   6.57531203E-27
  -1.37250004E-02   8.59136933E-27
  -1.37099996E-02   1.10224877E-26
  -1.36949997E-02   1.39188298E-26
  -1.36799999E-02   1.73289414E-26
  -1.36650000E-02   2.12973016E-26
  -1.36500001E-02   2.58612794E-26
  -1.36350002E-02   3.10474298E-26
  -1.36200003E-02   3.68671124E-26
  -1.36050005E-02   4.33113788E-26
  -1.35899996E-02   5.03450783E-26
  -1.35749998E-02   5.79002765E-26
  -1.35599999E-02   6.58689303E-26
  -1.35450000E-02   7.40949870E-26
  -1.35300001E-02   8.23659039E-26
  -1.35150002E-02   9.04038665E-26
  -1.35000004E-02   9.78568271E-26
  -1.34849995E-02   1.04289680E-25
  -1.34699997E-02   1.09175921E-25
  -1.34549998E-02   1.11890096E-25
  -1.34399999E-02   1.11701558E-25
  -1.34250000E-02   1.07770171E-25
  -1.34100001E-02   9.91442913E-26
  -1.33950002E-02   8.47619025E-26
  -1.33800004E-02   6.34555090E-26
  -1.33649996E-02   3.39614604E-26
  -1.33499997E-02  -5.06540529E-27
  -1.33349998E-02  -5.50311709E-26
  -1.33199999E-02  -1.17375526E-25
  -1.33050000E-02  -1.93537076E-25
  -1.32900001E-02  -2.84910625E-25
  -1.32750003E-02  -3.92796056E-25
  -1.32600004E-02  -5.18338314E-25
  -1.32449996E-02  -6.62458764E-25
  -1.32299997E-02  -8.25777278E-25
  -1.32149998E-02  -1.00852662E-24
  -1.31999999E-02  -1.21045854E-24
  -1.31850000E-02  -1.43074381E-24
  -1.31700002E-02  -1.66786692E-24
  -1.31550003E-02  -1.91951828E-24
  -1.31400004E-02  -2.18248467E-24
  -1.31249996E-02  -2.45254331E-24
  -1.31099997E-02  -2.72436052E-24
  -1.30949998E-02  -2.99140019E-24
  -1.30799999E-02  -3.24584669E-24
  -1.30650001E-02  -3.47854488E-24
  -1.30500002E-02  -3.67896524E-24
  -1.30350003E-02  -3.83519639E-24
  -1.30200004E-02  -3.93397439E-24
  -1.30049996E-02  -3.96074991E-24
  -1.29899997E-02  -3.89980054E-24
  -1.29749998E-02  -3.73439534E-24
  -1.29600000E-02  -3.44701411E-24
  -1.29450001E-02  -3.01962504E-24
  -1.29300002E-02  -2.43402559E-24
  -1.29150003E-02  -1.67224667E-24
  -1.29000004E-02  -7.17025259E-25
  -1.28849996E-02   4.47662639E-25
  -1.28699997E-02   1.83600532E-24
  -1.28549999E-02   3.45970214E-24
  -1.28400000E-02   5.32726013E-24
  -1.28250001E-02   7.44324816E-24
  -1.28100002E-02   9.80752504E-24
  -1.27950003E-02   1.24144508E-23
  -1.27800005E-02   1.52520971E-23
  -1.27649996E-02   1.83014799E-23
  -1.27499998E-02   2.15358396E-23
  -1.27349999E-02   2.49199693E-23
  -1.27200000E-02   2.84096611E-23
  -1.27050001E-02   3.19512427E-23
  -1.26900002E-02   3.54812817E-23
  -1.26750004E-02   3.89264487E-23
  -1.26599995E-02   4.22035788E-23
  -1.26449997E-02   4.52199778E-23
  -1.26299998E-02   4.78739836E-23
  -1.26149999E-02   5.00557709E-23
  -1.26000000E-02   5.16484842E-23
  -1.25850001E-02   5.25296671E-23
  -1.25700003E-02   5.25730103E-23
  -1.25550004E-02   5.16504280E-23
  -1.25399996E-02   4.96344340E-23
  -1.25249997E-02   4.64008268E-23
  -1.25099998E-02   4.18316877E-23
  -1.24949999E-02   3.58185923E-23
  -1.24800000E-02   2.82660474E-23
  -1.24650002E-02   1.90951134E-23
  -1.24500003E-02   8.24710768E-24
  -1.24350004E-02  -4.31264380E-24
  -1.24199996E-02  -1.85910960E-23
  -1.24049997E-02  -3.45638901E-23
  -1.23899998E-02  -5.21719849E-23
  -1.23749999E-02  -7.13186047E-23
  -1.23600001E-02  -9.18665695E-23
  -1.23450002E-02  -1.13636183E-22
  -1.23300003E-02  -1.36403744E-22
  -1.23150004E-02  -1.59900679E-22
  -1.22999996E-02  -1.83813603E-22
  -1.22849997E-02  -2.07785281E-22
  -1.22699998E-02  -2.31416398E-22
  -1.22550000E-02  -2.54268575E-22
  -1.22400001E-02  -2.75868294E-22
  -1.22250002E-02  -2.95712020E-22
  -1.22100003E-02  -3.13272342E-22
  -1.21950004E-02  -3.28005259E-22
  -1.21799996E-02  -3.39358520E-22
  -1.21649997E-02  -3.46780755E-22
  -1.21499998E-02  -3.49731625E-22
  -1.21350000E-02  -3.47692653E-22
  -1.21200001E-02  -3.40178532E-22
  -1.21050002E-02  -3.26748938E-22
  -1.20900003E-02  -3.07020373E-22
  -1.20750004E-02  -2.80678023E-22
  -1.20599996E-02  -2.47487300E-22
  -1.20449997E-02  -2.07304707E-22
  -1.20299999E-02  -1.60088075E-22
  -1.20150000E-02  -1.05905447E-22
  -1.20000001E-02  -4.49426616E-23
  -1.19850002E-02   2.24907084E-23
  -1.19700003E-02   9.59572929E-23
  -1.19550005E-02   1.74889996E-22
  -1.19399996E-02   2.58592366E-22
  -1.19249998E-02   3.46241325E-22
  -1.19099999E-02   4.36892677E-22
  -1.18950000E-02   5.29488943E-22
  -1.18800001E-02   6.22869930E-22
  -1.18650002E-02   7.15785678E-22
  -1.18500004E-02   8.06912163E-22
  -1.18349995E-02   8.94868867E-22
  -1.18199997E-02   9.78238212E-22
  -1.18049998E-02   1.05558758E-21
  -1.17899999E-02   1.12549080E-21
  -1.17750000E-02   1.18655262E-21
  -1.17600001E-02   1.23743170E-21
  -1.17450003E-02   1.27686475E-21
  -1.17300004E-02   1.30368966E-21
  -1.17149996E-02   1.31686679E-21
  -1.16999997E-02   1.31549950E-21
  -1.16849998E-02   1.29885208E-21
  -1.16699999E-02   1.26636434E-21
  -1.16550000E-02   1.21766388E-21
  -1.16400002E-02   1.15257440E-21
  -1.16250003E-02   1.07111983E-21
  -1.16100004E-02   9.73524635E-22
  -1.15949996E-02   8.60210181E-22
  -1.15799997E-02   7.31785998E-22
  -1.15649998E-02   5.89038172E-22
  -1.15499999E-02   4.32912577E-22
  -1.15350001E-02   2.64495519E-22
  -1.15200002E-02   8.49912933E-23
  -1.15050003E-02  -1.04302785E-22
  -1.14900004E-02  -3.02022832E-22
  -1.14749996E-02  -5.06765760E-22
  -1.14599997E-02  -7.17116215E-22
  -1.14449998E-02  -9.31672446E-22
  -1.14300000E-02  -1.14907019E-21
  -1.14150001E-02  -1.36800275E-21
  -1.14000002E-02  -1.58723752E-21
  -1.13850003E-02  -1.80562744E-21
  -1.13700004E-02  -2.02211530E-21
  -1.13549996E-02  -2.23573389E-21
  -1.13399997E-02  -2.44559583E-21
  -1.13249999E-02  -2.65087819E-21
  -1.13100000E-02  -2.85079862E-21
  -1.12950001E-02  -3.04458405E-21
  -1.12800002E-02  -3.23143337E-21
  -1.12650003E-02  -3.41047132E-21
  -1.12500004E-02  -3.58070008E-21
  -1.12349996E-02  -3.74094532E-21
  -1.12199998E-02  -3.88980067E-21
  -1.12049999E-02  -4.02557017E-21
  -1.11900000E-02  -4.14621495E-21
  -1.11750001E-02  -4.24930355E-21
  -1.11600002E-02  -4.33196870E-21
  -1.11450003E-02  -4.39087018E-21
  -1.11300005E-02  -4.42217702E-21
  -1.11149997E-02  -4.42155826E-21
  -1.10999998E-02  -4.38419134E-21
  -1.10849999E-02  -4.30479493E-21
  -1.10700000E-02  -4.17767568E-21
  -1.10550001E-02  -3.99680626E-21
  -1.10400002E-02  -3.75591899E-21
  -1.10250004E-02  -3.44863270E-21
  -1.10099996E-02  -3.06860056E-21
  -1.09949997E-02  -2.60967890E-21
  -1.09799998E-02  -2.06612370E-21
  -1.09649999E-02  -1.43280425E-21
  -1.09500000E-02  -7.05435520E-22
  -1.09350001E-02   1.19178001E-22
  -1.09200003E-02   1.04289088E-21
  -1.09050004E-02   2.06595992E-21
  -1.08899996E-02   3.18679389E-21
  -1.08749997E-02   4.40171359E-21
  -1.08599998E-02   5.70472622E-21
  -1.08449999E-02   7.08733196E-21
  -1.08300000E-02   8.53836023E-21
  -1.08150002E-02   1.00438475E-20
  -1.08000003E-02   1.15869659E-20
  -1.07850004E-02   1.31480084E-20
  -1.07699996E-02   1.47044392E-20
  -1.07549997E-02   1.62310139E-20
  -1.07399998E-02   1.76999639E-20
  -1.07249999E-02   1.90812780E-20
  -1.07100001E-02   2.03430483E-20
  -1.06950002E-02   2.14518984E-20
  -1.06800003E-02   2.23734988E-20
  -1.06650004E-02   2.30731417E-20
  -1.06499996E-02   2.35163991E-20
  -1.06349997E-02   2.36698314E-20
  -1.06199998E-02   2.35017570E-20
  -1.06050000E-02   2.29830485E-20
  -1.05900001E-02   2.20879616E-20
  -1.05750002E-02   2.07949636E-20
  -1.05600003E-02   1.90875642E-20
  -1.05450004E-02   1.69551023E-20
  -1.05299996E-02   1.43934871E-20
  -1.05149997E-02   1.14058852E-20
  -1.04999999E-02   8.00328747E-21
  -1.04850000E-02   4.20499284E-21
  -1.04700001E-02   3.89350851E-23
  -1.04550002E-02  -4.45812424E-21
  -1.04400003E-02  -9.24057518E-21
  -1.04250005E-02  -1.42541233E-20
  -1.04099996E-02  -1.94361417E-20
  -1.03949998E-02  -2.47162343E-20
  -1.03799999E-02  -3.00169789E-20
  -1.03650000E-02  -3.52549062E-20
  -1.03500001E-02  -4.03416696E-20
  -1.03350002E-02  -4.51853646E-20
  -1.03200004E-02  -4.96920934E-20
  -1.03049995E-02  -5.37676155E-20
  -1.02899997E-02  -5.73191768E-20
  -1.02749998E-02  -6.02574128E-20
  -1.02599999E-02  -6.24983162E-20
  -1.02450000E-02  -6.39652370E-20
  -1.02300001E-02  -6.45908763E-20
  -1.02150002E-02  -6.43191863E-20
  -1.02000004E-02  -6.31072310E-20
  -1.01849996E-02  -6.09267829E-20
  -1.01699997E-02  -5.77658543E-20
  -1.01549998E-02  -5.36298640E-20
  -1.01399999E-02  -4.85425805E-20
  -1.01250000E-02  -4.25467101E-20
  -1.01100001E-02  -3.57041138E-20
  -1.00950003E-02  -2.80956419E-20
  -1.00800004E-02  -1.98205351E-20
  -1.00649996E-02  -1.09954073E-20
  -1.00499997E-02  -1.75276421E-21
  -1.00349998E-02   7.76089366E-21
  -1.00199999E-02   1.73874124E-20
  -1.00050000E-02   2.69597112E-20
  -9.99000017E-03   3.63048731E-20
  -9.97500028E-03   4.52475615E-20
  -9.96000040E-03   5.36137049E-20
  -9.94499959E-03   6.12343648E-20
  -9.92999971E-03   6.79497208E-20
  -9.91499983E-03   7.36131227E-20
  -9.89999995E-03   7.80950651E-20
  -9.88500006E-03   8.12870194E-20
  -9.87000018E-03   8.31050396E-20
  -9.85500030E-03   8.34930067E-20
  -9.84000042E-03   8.24254590E-20
  -9.82499961E-03   7.99098542E-20
  -9.80999973E-03   7.59882555E-20
  -9.79499985E-03   7.07382823E-20
  -9.77999996E-03   6.42732842E-20
  -9.76500008E-03   5.67417337E-20
  -9.75000020E-03   4.83256879E-20
  -9.73500032E-03   3.92384271E-20
  -9.72000044E-03   2.97211164E-20
  -9.70499963E-03   2.00386539E-20
  -9.68999974E-03   1.04746156E-20
  -9.67499986E-03   1.32544152E-21
  -9.65999998E-03  -7.10611235E-21
  -9.64500010E-03  -1.45181248E-20
  -9.63000022E-03  -2.06171504E-20
  -9.61500034E-03  -2.51262186E-20
  -9.60000046E-03  -2.77930198E-20
  -9.58499964E-03  -2.83981153E-20
  -9.56999976E-03  -2.67629554E-20
  -9.55499988E-03  -2.27575707E-20
  -9.54000000E-03  -1.63076800E-20
  -9.52500012E-03  -7.40100628E-21
  -9.51000024E-03   3.90733141E-21
  -9.49500035E-03   1.74906080E-20
  -9.47999954E-03   3.31476119E-20
  -9.46499966E-03   5.06012876E-20
  -9.44999978E-03   6.94989784E-20
  -9.43499990E-03   8.94144567E-20
  -9.42000002E-03   1.09851770E-19
  -9.40500014E-03   1.30250987E-19
  -9.39000025E-03   1.49995892E-19
  -9.37500037E-03   1.68423408E-19
  -9.35999956E-03   1.84835033E-19
  -9.34499968E-03   1.98509750E-19
  -9.32999980E-03   2.08718645E-19
  -9.31499992E-03   2.14740766E-19
  -9.30000003E-03   2.15880052E-19
  -9.28500015E-03   2.11483160E-19
  -9.27000027E-03   2.00957727E-19
  -9.25500039E-03   1.83790769E-19
  -9.23999958E-03   1.59566901E-19
  -9.22499970E-03   1.27985843E-19
  -9.20999981E-03   8.88790123E-20
  -9.19499993E-03   4.22245911E-20
  -9.18000005E-03  -1.18392875E-20
  -9.16500017E-03  -7.30035294E-20
  -9.15000029E-03  -1.40779794E-19
  -9.13500041E-03  -2.14495080E-19
  -9.11999959E-03  -2.93289785E-19
  -9.10499971E-03  -3.76119128E-19
  -9.08999983E-03  -4.61758636E-19
  -9.07499995E-03  -5.48813347E-19
  -9.06000007E-03  -6.35731107E-19
  -9.04500019E-03  -7.20820075E-19
  -9.03000031E-03  -8.02269810E-19
  -9.01500043E-03  -8.78176711E-19
  -8.99999961E-03  -9.46572864E-19
  -8.98499973E-03  -1.00545789E-18
  -8.96999985E-03  -1.05283435E-18
  -8.95499997E-03  -1.08674482E-18
  -8.94000009E-03  -1.10531182E-18
  -8.92500021E-03  -1.10677821E-18
  -8.91000032E-03  -1.08954824E-18
  -8.89500044E-03  -1.05222957E-18
  -8.87999963E-03  -9.93673252E-19
  -8.86499975E-03  -9.13012388E-19
  -8.84999987E-03  -8.09698822E-19
  -8.83499999E-03  -6.83536150E-19
  -8.82000010E-03  -5.34708935E-19
  -8.80500022E-03  -3.63806881E-19
  -8.79000034E-03  -1.71844045E-19
  -8.77500046E-03   3.97287449E-20
  -8.75999965E-03   2.69017566E-19
  -8.74499977E-03   5.13687019E-19
  -8.72999988E-03   7.70968779E-19
  -8.71500000E-03   1.03767843E-18
  -8.70000012E-03   1.31024024E-18
  -8.68500024E-03   1.58472048E-18
  -8.67000036E-03   1.85686827E-18
  -8.65499955E-03   2.12216454E-18
  -8.63999967E-03   2.37587820E-18
  -8.62499978E-03   2.61312952E-18
  -8.60999990E-03   2.82895894E-18
  -8.59500002E-03   3.01840315E-18
  -8.58000014E-03   3.17657394E-18
  -8.56500026E-03   3.29874169E-18
  -8.55000038E-03   3.38041978E-18
  -8.53499956E-03   3.41745224E-18
  -8.51999968E-03   3.40610022E-18
  -8.50499980E-03   3.34312634E-18
  -8.48999992E-03   3.22587638E-18
  -8.47500004E-03   3.05235767E-18
  -8.46000016E-03   2.82131041E-18
  -8.44500028E-03   2.53227282E-18
  -8.43000039E-03   2.18563555E-18
  -8.41499958E-03   1.78269003E-18
  -8.39999970E-03   1.32566157E-18
  -8.38499982E-03   8.17733590E-19
  -8.36999994E-03   2.63056023E-19
  -8.35500006E-03  -3.33258325E-19
  -8.34000017E-03  -9.65152995E-19
  -8.32500029E-03  -1.62566230E-18
  -8.31000041E-03  -2.30696061E-18
  -8.29499960E-03  -3.00042748E-18
  -8.27999972E-03  -3.69672930E-18
  -8.26499984E-03  -4.38591220E-18
  -8.24999996E-03  -5.05751585E-18
  -8.23500007E-03  -5.70069386E-18
  -8.22000019E-03  -6.30435125E-18
  -8.20500031E-03  -6.85729130E-18
  -8.19000043E-03  -7.34837312E-18
  -8.17499962E-03  -7.76667670E-18
  -8.15999974E-03  -8.10167493E-18
  -8.14499985E-03  -8.34340853E-18
  -8.12999997E-03  -8.48266274E-18
  -8.11500009E-03  -8.51114505E-18
  -8.10000021E-03  -8.42165899E-18
  -8.08500033E-03  -8.20827121E-18
  -8.07000045E-03  -7.86647108E-18
  -8.05499963E-03  -7.39332212E-18
  -8.03999975E-03  -6.78759058E-18
  -8.02499987E-03  -6.04987244E-18
  -8.00999999E-03  -5.18268648E-18
  -7.99500011E-03  -4.19055323E-18
  -7.98000023E-03  -3.08005147E-18
  -7.96500035E-03  -1.85984468E-18
  -7.95000046E-03  -5.40680869E-19
  -7.93499965E-03   8.64635713E-19
  -7.91999977E-03   2.34130577E-18
  -7.90499989E-03   3.87262802E-18
  -7.89000001E-03   5.44012411E-18
  -7.87500013E-03   7.02369729E-18
  -7.86000025E-03   8.60182224E-18
  -7.84500036E-03   1.01517709E-17
  -7.82999955E-03   1.16498629E-17
  -7.81499967E-03   1.30717532E-17
  -7.79999979E-03   1.43927408E-17
  -7.78499991E-03   1.55881028E-17
  -7.77000003E-03   1.66334523E-17
  -7.75500014E-03   1.75051138E-17
  -7.73999980E-03   1.81805067E-17
  -7.72499992E-03   1.86385381E-17
  -7.71000003E-03   1.88600108E-17
  -7.69500015E-03   1.88280088E-17
  -7.67999981E-03   1.85282882E-17
  -7.66499992E-03   1.79496456E-17
  -7.65000004E-03   1.70842807E-17
  -7.63500016E-03   1.59281022E-17
  -7.61999981E-03   1.44810275E-17
  -7.60499993E-03   1.27472246E-17
  -7.59000005E-03   1.07353113E-17
  -7.57500017E-03   8.45849831E-18
  -7.55999982E-03   5.93467679E-18
  -7.54499994E-03   3.18643352E-18
  -7.53000006E-03   2.41002587E-19
  -7.51500018E-03  -2.86986116E-18
  -7.49999983E-03  -6.11008250E-18
  -7.48499995E-03  -9.43954610E-18
  -7.47000007E-03  -1.28144554E-17
  -7.45500019E-03  -1.61877773E-17
  -7.43999984E-03  -1.95097579E-17
  -7.42499996E-03  -2.27285079E-17
  -7.41000008E-03  -2.57906776E-17
  -7.39500020E-03  -2.86421776E-17
  -7.37999985E-03  -3.12289533E-17
  -7.36499997E-03  -3.34978502E-17
  -7.35000009E-03  -3.53974473E-17
  -7.33500021E-03  -3.68789774E-17
  -7.31999986E-03  -3.78972401E-17
  -7.30499998E-03  -3.84115115E-17
  -7.29000010E-03  -3.83864380E-17
  -7.27500021E-03  -3.77929193E-17
  -7.25999987E-03  -3.66089096E-17
  -7.24499999E-03  -3.48202010E-17
  -7.23000010E-03  -3.24210926E-17
  -7.21500022E-03  -2.94149793E-17
  -7.19999988E-03  -2.58148246E-17
  -7.18499999E-03  -2.16435248E-17
  -7.17000011E-03  -1.69340994E-17
  -7.15500023E-03  -1.17297652E-17
  -7.13999989E-03  -6.08383193E-18
  -7.12500000E-03  -5.94267167E-20
  -7.11000012E-03   6.27095631E-18
  -7.09499978E-03   1.28260740E-17
  -7.07999989E-03   1.95167558E-17
  -7.06500001E-03   2.62468759E-17
  -7.05000013E-03   3.29145191E-17
  -7.03499978E-03   3.94132934E-17
  -7.01999990E-03   4.56337975E-17
  -7.00500002E-03   5.14652322E-17
  -6.99000014E-03   5.67970994E-17
  -6.97499979E-03   6.15210287E-17
  -6.95999991E-03   6.55326363E-17
  -6.94500003E-03   6.87334480E-17
  -6.93000015E-03   7.10328315E-17
  -6.91499980E-03   7.23498684E-17
  -6.89999992E-03   7.26152081E-17
  -6.88500004E-03   7.17728339E-17
  -6.87000016E-03   6.97816645E-17
  -6.85499981E-03   6.66170237E-17
  -6.83999993E-03   6.22718837E-17
  -6.82500005E-03   5.67579176E-17
  -6.81000017E-03   5.01062737E-17
  -6.79499982E-03   4.23680586E-17
  -6.77999994E-03   3.36145025E-17
  -6.76500006E-03   2.39368186E-17
  -6.75000018E-03   1.34457009E-17
  -6.73499983E-03   2.27046023E-18
  -6.71999995E-03  -9.44219059E-18
  -6.70500007E-03  -2.15297114E-17
  -6.69000018E-03  -3.38156596E-17
  -6.67499984E-03  -4.61119443E-17
  -6.65999996E-03  -5.82214118E-17
  -6.64500007E-03  -6.99406884E-17
  -6.63000019E-03  -8.10632964E-17
  -6.61499985E-03  -9.13829568E-17
  -6.59999996E-03  -1.00697070E-16
  -6.58500008E-03  -1.08810289E-16
  -6.57000020E-03  -1.15538153E-16
  -6.55499985E-03  -1.20710731E-16
  -6.53999997E-03  -1.24176129E-16
  -6.52500009E-03  -1.25803941E-16
  -6.51000021E-03  -1.25488421E-16
  -6.49499986E-03  -1.23151430E-16
  -6.47999998E-03  -1.18744993E-16
  -6.46500010E-03  -1.12253571E-16
  -6.45000022E-03  -1.03695686E-16
  -6.43499987E-03  -9.31252507E-17
  -6.41999999E-03  -8.06321831E-17
  -6.40500011E-03  -6.63425387E-17
  -6.39000023E-03  -5.04178991E-17
  -6.37499988E-03  -3.30542630E-17
  -6.36000000E-03  -1.44801573E-17
  -6.34500012E-03   5.04580050E-18
  -6.32999977E-03   2.52380332E-17
  -6.31499989E-03   4.57877258E-17
  -6.30000001E-03   6.63670961E-17
  -6.28500013E-03   8.66342519E-17
  -6.26999978E-03   1.06238386E-16
  -6.25499990E-03   1.24825485E-16
  -6.24000002E-03   1.42044249E-16
  -6.22500014E-03   1.57552284E-16
  -6.20999979E-03   1.71022358E-16
  -6.19499991E-03   1.82148691E-16
  -6.18000003E-03   1.90653087E-16
  -6.16500014E-03   1.96290939E-16
  -6.14999980E-03   1.98856813E-16
  -6.13499992E-03   1.98189629E-16
  -6.12000003E-03   1.94177247E-16
  -6.10500015E-03   1.86760402E-16
  -6.08999981E-03   1.75935916E-16
  -6.07499992E-03   1.61758954E-16
  -6.06000004E-03   1.44344486E-16
  -6.04500016E-03   1.23867663E-16
  -6.02999981E-03   1.00563140E-16
  -6.01499993E-03   7.47234400E-17
  -6.00000005E-03   4.66960793E-17
  -5.98500017E-03   1.68797503E-17
  -5.96999982E-03  -1.42806314E-17
  -5.95499994E-03  -4.62998665E-17
  -5.94000006E-03  -7.86593375E-17
  -5.92500018E-03  -1.10814779E-16
  -5.90999983E-03  -1.42204775E-16
  -5.89499995E-03  -1.72259846E-16
  -5.88000007E-03  -2.00412151E-16
  -5.86500019E-03  -2.26105440E-16
  -5.84999984E-03  -2.48805129E-16
  -5.83499996E-03  -2.68008636E-16
  -5.82000008E-03  -2.83255256E-16
  -5.80500020E-03  -2.94135764E-16
  -5.78999985E-03  -3.00301661E-16
  -5.77499997E-03  -3.01473452E-16
  -5.76000009E-03  -2.97448140E-16
  -5.74500021E-03  -2.88105631E-16
  -5.72999986E-03  -2.73413924E-16
  -5.71499998E-03  -2.53432946E-16
  -5.70000010E-03  -2.28316910E-16
  -5.68500021E-03  -1.98315109E-16
  -5.66999987E-03  -1.63770988E-16
  -5.65499999E-03  -1.25119644E-16
  -5.64000010E-03  -8.28835238E-17
  -5.62500022E-03  -3.76665030E-17
  -5.60999988E-03   9.85378243E-18
  -5.59500000E-03   5.89350834E-17
  -5.58000011E-03   1.08781219E-16
  -5.56500023E-03   1.58554099E-16
  -5.54999989E-03   2.07386792E-16
  -5.53500000E-03   2.54397796E-16
  -5.52000012E-03   2.98705825E-16
  -5.50499978E-03   3.39445330E-16
  -5.48999989E-03   3.75782091E-16
  -5.47500001E-03   4.06929054E-16
  -5.46000013E-03   4.32161610E-16
  -5.44499978E-03   4.50832545E-16
  -5.42999990E-03   4.62386074E-16
  -5.41500002E-03   4.66370570E-16
  -5.40000014E-03   4.62450396E-16
  -5.38499979E-03   4.50415487E-16
  -5.36999991E-03   4.30189532E-16
  -5.35500003E-03   4.01835818E-16
  -5.34000015E-03   3.65560997E-16
  -5.32499980E-03   3.21716322E-16
  -5.30999992E-03   2.70796460E-16
  -5.29500004E-03   2.13435825E-16
  -5.28000016E-03   1.50402121E-16
  -5.26499981E-03   8.25875123E-17
  -5.24999993E-03   1.09973026E-17
  -5.23500005E-03  -6.32638850E-17
  -5.22000017E-03  -1.39007940E-16
  -5.20499982E-03  -2.14981290E-16
  -5.18999994E-03  -2.89884427E-16
  -5.17500006E-03  -3.62393200E-16
  -5.16000018E-03  -4.31180931E-16
  -5.14499983E-03  -4.94941521E-16
  -5.12999995E-03  -5.52412759E-16
  -5.11500007E-03  -6.02399932E-16
  -5.10000018E-03  -6.43798774E-16
  -5.08499984E-03  -6.75617513E-16
  -5.06999996E-03  -6.96998001E-16
  -5.05500007E-03  -7.07234871E-16
  -5.04000019E-03  -7.05792850E-16
  -5.02499985E-03  -6.92321532E-16
  -5.00999996E-03  -6.66667604E-16
  -4.99500008E-03  -6.28883582E-16
  -4.98000020E-03  -5.79234005E-16
  -4.96499985E-03  -5.18197022E-16
  -4.94999997E-03  -4.46463602E-16
  -4.93500009E-03  -3.64931890E-16
  -4.92000021E-03  -2.74698370E-16
  -4.90499986E-03  -1.77045172E-16
  -4.88999998E-03  -7.34237077E-17
  -4.87500010E-03   3.45651613E-17
  -4.86000022E-03   1.45194192E-16
  -4.84499987E-03   2.56635736E-16
  -4.82999999E-03   3.66990259E-16
  -4.81500011E-03   4.74317116E-16
  -4.80000023E-03   5.76666966E-16
  -4.78499988E-03   6.72115138E-16
  -4.77000000E-03   7.58796096E-16
  -4.75500012E-03   8.34937476E-16
  -4.73999977E-03   8.98894022E-16
  -4.72499989E-03   9.49179827E-16
  -4.71000001E-03   9.84499512E-16
  -4.69500013E-03   1.00377661E-15
  -4.67999978E-03   1.00617869E-15
  -4.66499990E-03   9.91140357E-16
  -4.65000002E-03   9.58380828E-16
  -4.63500014E-03   9.07917993E-16
  -4.61999979E-03   8.40077748E-16
  -4.60499991E-03   7.55497855E-16
  -4.59000003E-03   6.55126780E-16
  -4.57500014E-03   5.40217497E-16
  -4.55999980E-03   4.12315019E-16
  -4.54499992E-03   2.73239144E-16
  -4.53000003E-03   1.25061860E-16
  -4.51500015E-03  -2.99205918E-17
  -4.49999981E-03  -1.89220172E-16
  -4.48499992E-03  -3.50193834E-16
  -4.47000004E-03  -5.10084194E-16
  -4.45500016E-03  -6.66063405E-16
  -4.43999982E-03  -8.15279482E-16
  -4.42499993E-03  -9.54904817E-16
  -4.41000005E-03  -1.08218539E-15
  -4.39500017E-03  -1.19449073E-15
  -4.37999982E-03  -1.28936266E-15
  -4.36499994E-03  -1.36456309E-15
  -4.35000006E-03  -1.41811971E-15
  -4.33500018E-03  -1.44836768E-15
  -4.31999983E-03  -1.45398870E-15
  -4.30499995E-03  -1.43404414E-15
  -4.29000007E-03  -1.38800346E-15
  -4.27500019E-03  -1.31576637E-15
  -4.25999984E-03  -1.21767794E-15
  -4.24499996E-03  -1.09453746E-15
  -4.23000008E-03  -9.47599157E-16
  -4.21500020E-03  -7.78565686E-16
  -4.19999985E-03  -5.89573154E-16
  -4.18499997E-03  -3.83169303E-16
  -4.17000009E-03  -1.62283188E-16
  -4.15500021E-03   6.98121974E-17
  -4.13999986E-03   3.09543929E-16
  -4.12499998E-03   5.53090174E-16
  -4.11000010E-03   7.96436546E-16
  -4.09500021E-03   1.03543743E-15
  -4.07999987E-03   1.26588174E-15
  -4.06499999E-03   1.48356148E-15
  -4.05000011E-03   1.68434227E-15
  -4.03500022E-03   1.86423503E-15
  -4.01999988E-03   2.01946715E-15
  -4.00500000E-03   2.14655217E-15
  -3.99000011E-03   2.24235773E-15
  -3.97500023E-03   2.30416827E-15
  -3.95999989E-03   2.32974252E-15
  -3.94500000E-03   2.31736737E-15
  -3.93000012E-03   2.26590059E-15
  -3.91499978E-03   2.17480982E-15
  -3.89999989E-03   2.04419819E-15
  -3.88500001E-03   1.87482357E-15
  -3.86999990E-03   1.66810539E-15
  -3.85500002E-03   1.42612227E-15
  -3.83999990E-03   1.15159762E-15
  -3.82500002E-03   8.47874580E-16
  -3.80999991E-03   5.18880102E-16
  -3.79500003E-03   1.69078245E-16
  -3.77999991E-03  -1.96586871E-16
  -3.76500003E-03  -5.72757114E-16
  -3.74999992E-03  -9.53735488E-16
  -3.73500003E-03  -1.33356888E-15
  -3.71999992E-03  -1.70613717E-15
  -3.70500004E-03  -2.06524801E-15
  -3.68999992E-03  -2.40473437E-15
  -3.67500004E-03  -2.71855648E-15
  -3.65999993E-03  -3.00090136E-15
  -3.64500005E-03  -3.24628490E-15
  -3.62999993E-03  -3.44964883E-15
  -3.61500005E-03  -3.60645411E-15
  -3.59999994E-03  -3.71276860E-15
  -3.58500006E-03  -3.76534817E-15
  -3.56999994E-03  -3.76170551E-15
  -3.55500006E-03  -3.70017407E-15
  -3.53999995E-03  -3.57995426E-15
  -3.52500007E-03  -3.40115174E-15
  -3.50999995E-03  -3.16479821E-15
  -3.49500007E-03  -2.87286217E-15
  -3.47999996E-03  -2.52824003E-15
  -3.46500007E-03  -2.13473584E-15
  -3.44999996E-03  -1.69702363E-15
  -3.43500008E-03  -1.22059608E-15
  -3.41999996E-03  -7.11698470E-16
  -3.40500008E-03  -1.77248262E-16
  -3.38999997E-03   3.75257354E-16
  -3.37500009E-03   9.37845573E-16
  -3.35999997E-03   1.50218233E-15
  -3.34500009E-03   2.05969529E-15
  -3.32999998E-03   2.60170363E-15
  -3.31500010E-03   3.11955162E-15
  -3.29999998E-03   3.60474734E-15
  -3.28500010E-03   4.04909870E-15
  -3.26999999E-03   4.44484944E-15
  -3.25500011E-03   4.78481289E-15
  -3.23999999E-03   5.06249697E-15
  -3.22500011E-03   5.27222148E-15
  -3.21000000E-03   5.40922652E-15
  -3.19500011E-03   5.46976650E-15
  -3.18000000E-03   5.45119276E-15
  -3.16499989E-03   5.35201749E-15
  -3.15000000E-03   5.17196200E-15
  -3.13499989E-03   4.91198684E-15
  -3.12000001E-03   4.57430233E-15
  -3.10499989E-03   4.16236183E-15
  -3.09000001E-03   3.68082911E-15
  -3.07499990E-03   3.13553365E-15
  -3.06000002E-03   2.53340037E-15
  -3.04499990E-03   1.88236301E-15
  -3.03000002E-03   1.19126015E-15
  -3.01499991E-03   4.69713598E-16
  -3.00000003E-03  -2.72006552E-16
  -2.98499991E-03  -1.02313131E-15
  -2.97000003E-03  -1.77255144E-15
  -2.95499992E-03  -2.50898549E-15
  -2.94000003E-03  -3.22115322E-15
  -2.92499992E-03  -3.89795160E-15
  -2.91000004E-03  -4.52863243E-15
  -2.89499993E-03  -5.10297498E-15
  -2.88000004E-03  -5.61145775E-15
  -2.86499993E-03  -6.04541645E-15
  -2.85000005E-03  -6.39719516E-15
  -2.83499993E-03  -6.66028274E-15
  -2.82000005E-03  -6.82943141E-15
  -2.80499994E-03  -6.90076090E-15
  -2.79000006E-03  -6.87183854E-15
  -2.77499994E-03  -6.74174148E-15
  -2.76000006E-03  -6.51109187E-15
  -2.74499995E-03  -6.18206997E-15
  -2.73000007E-03  -5.75840314E-15
  -2.71499995E-03  -5.24532903E-15
  -2.70000007E-03  -4.64953368E-15
  -2.68499996E-03  -3.97906687E-15
  -2.67000007E-03  -3.24323325E-15
  -2.65499996E-03  -2.45246150E-15
  -2.64000008E-03  -1.61815597E-15
  -2.62499996E-03  -7.52527258E-16
  -2.61000008E-03   1.31589440E-16
  -2.59499997E-03   1.02093082E-15
  -2.58000009E-03   1.90200973E-15
  -2.56499997E-03   2.76132677E-15
  -2.55000009E-03   3.58558406E-15
  -2.53499998E-03   4.36190077E-15
  -2.52000010E-03   5.07802054E-15
  -2.50499998E-03   5.72251436E-15
  -2.49000010E-03   6.28497346E-15
  -2.47499999E-03   6.75618466E-15
  -2.46000011E-03   7.12829216E-15
  -2.44499999E-03   7.39493644E-15
  -2.43000011E-03   7.55137072E-15
  -2.41500000E-03   7.59455416E-15
  -2.40000011E-03   7.52321958E-15
  -2.38500000E-03   7.33790826E-15
  -2.36999989E-03   7.04097959E-15
  -2.35500000E-03   6.63658996E-15
  -2.33999989E-03   6.13064067E-15
  -2.32500001E-03   5.53070121E-15
  -2.30999989E-03   4.84589878E-15
  -2.29500001E-03   4.08678278E-15
  -2.27999990E-03   3.26516802E-15
  -2.26500002E-03   2.39394953E-15
  -2.24999990E-03   1.48690302E-15
  -2.23500002E-03   5.58464333E-16
  -2.21999991E-03  -3.76500878E-16
  -2.20500003E-03  -1.30293880E-15
  -2.18999991E-03  -2.20585485E-15
  -2.17500003E-03  -3.07056156E-15
  -2.15999992E-03  -3.88292481E-15