  -1.49999997E-02   0.00000000    
  -1.49849998E-02   0.00000000    
  -1.49699999E-02   0.00000000    
  -1.49550000E-02   0.00000000    
  -1.49400001E-02   0.00000000    
  -1.49250003E-02   0.00000000    
  -1.49100004E-02   0.00000000    
  -1.48949996E-02   0.00000000    
  -1.48799997E-02   0.00000000    
  -1.48649998E-02   0.00000000    
  -1.48499999E-02   0.00000000    
  -1.48350000E-02   0.00000000    
  -1.48200002E-02   0.00000000    
  -1.48050003E-02   0.00000000    
  -1.47900004E-02   0.00000000    
  -1.47749996E-02   0.00000000    
  -1.47599997E-02   0.00000000    
  -1.47449998E-02   0.00000000    
  -1.47299999E-02   0.00000000    
  -1.47150001E-02   0.00000000    
  -1.47000002E-02   0.00000000    
  -1.46850003E-02   0.00000000    
  -1.46700004E-02   0.00000000    
  -1.46549996E-02   0.00000000    
  -1.46399997E-02   0.00000000    
  -1.46249998E-02   0.00000000    
  -1.46100000E-02   0.00000000    
  -1.45950001E-02   0.00000000    
  -1.45800002E-02   0.00000000    
  -1.45650003E-02   0.00000000    
  -1.45500004E-02   0.00000000    
  -1.45349996E-02   0.00000000    
  -1.45199997E-02   0.00000000    
  -1.45049999E-02   0.00000000    
  -1.44900000E-02   0.00000000    
  -1.44750001E-02   0.00000000    
  -1.44600002E-02   0.00000000    
  -1.44450003E-02   0.00000000    
  -1.44300004E-02   0.00000000    
  -1.44149996E-02   0.00000000    
  -1.43999998E-02   0.00000000    
  -1.43849999E-02   0.00000000    
  -1.43700000E-02   0.00000000    
  -1.43550001E-02   0.00000000    
  -1.43400002E-02   0.00000000    
  -1.43250003E-02   0.00000000    
  -1.43100005E-02   0.00000000    
  -1.42949997E-02   0.00000000    
  -1.42799998E-02   0.00000000    
  -1.42649999E-02   0.00000000    
  -1.42500000E-02   0.00000000    
  -1.42350001E-02   0.00000000    
  -1.42200002E-02   0.00000000    
  -1.42050004E-02   0.00000000    
  -1.41899996E-02   0.00000000    
  -1.41749997E-02   0.00000000    
  -1.41599998E-02   0.00000000    
  -1.41449999E-02   0.00000000    
  -1.41300000E-02   0.00000000    
  -1.41150001E-02   0.00000000    
  -1.41000003E-02   0.00000000    
  -1.40850004E-02   0.00000000    
  -1.40699996E-02   0.00000000    
  -1.40549997E-02   0.00000000    
  -1.40399998E-02   0.00000000    
  -1.40249999E-02   0.00000000    
  -1.40100000E-02   0.00000000    
  -1.39950002E-02   0.00000000    
  -1.39800003E-02   0.00000000    
  -1.39650004E-02   0.00000000    
  -1.39499996E-02   0.00000000    
  -1.39349997E-02   0.00000000    
  -1.39199998E-02   0.00000000    
  -1.39049999E-02   0.00000000    
  -1.38900001E-02   0.00000000    
  -1.38750002E-02   0.00000000    
  -1.38600003E-02   0.00000000    
  -1.38450004E-02   0.00000000    
  -1.38299996E-02   0.00000000    
  -1.38149997E-02   0.00000000    
  -1.37999998E-02   0.00000000    
  -1.37850000E-02   0.00000000    
  -1.37700001E-02   0.00000000    
  -1.37550002E-02   0.00000000    
  -1.37400003E-02   0.00000000    
  -1.37250004E-02   0.00000000    
  -1.37099996E-02   0.00000000    
  -1.36949997E-02   0.00000000    
  -1.36799999E-02   0.00000000    
  -1.36650000E-02   0.00000000    
  -1.36500001E-02   0.00000000    
  -1.36350002E-02   0.00000000    
  -1.36200003E-02   0.00000000    
  -1.36050005E-02   0.00000000    
  -1.35899996E-02   0.00000000    
  -1.35749998E-02   0.00000000    
  -1.35599999E-02   0.00000000    
  -1.35450000E-02   0.00000000    
  -1.35300001E-02   0.00000000    
  -1.35150002E-02   0.00000000    
  -1.35000004E-02   0.00000000    
  -1.34849995E-02   0.00000000    
  -1.34699997E-02   0.00000000    
  -1.34549998E-02   0.00000000    
  -1.34399999E-02   0.00000000    
  -1.34250000E-02   0.00000000    
  -1.34100001E-02   0.00000000    
  -1.33950002E-02   0.00000000    
  -1.33800004E-02   0.00000000    
  -1.33649996E-02   0.00000000    
  -1.33499997E-02   0.00000000    
  -1.33349998E-02   0.00000000    
  -1.33199999E-02   0.00000000    
  -1.33050000E-02   0.00000000    
  -1.32900001E-02   0.00000000    
  -1.32750003E-02   0.00000000    
  -1.32600004E-02   0.00000000    
  -1.32449996E-02   0.00000000    
  -1.32299997E-02   0.00000000    
  -1.32149998E-02   0.00000000    
  -1.31999999E-02   0.00000000    
  -1.31850000E-02   0.00000000    
  -1.31700002E-02   0.00000000    
  -1.31550003E-02   0.00000000    
  -1.31400004E-02   0.00000000    
  -1.31249996E-02   0.00000000    
  -1.31099997E-02   0.00000000    
  -1.30949998E-02   0.00000000    
  -1.30799999E-02   0.00000000    
  -1.30650001E-02   0.00000000    
  -1.30500002E-02   0.00000000    
  -1.30350003E-02   0.00000000    
  -1.30200004E-02   0.00000000    
  -1.30049996E-02   0.00000000    
  -1.29899997E-02   0.00000000    
  -1.29749998E-02   0.00000000    
  -1.29600000E-02   0.00000000    
  -1.29450001E-02   0.00000000    
  -1.29300002E-02   0.00000000    
  -1.29150003E-02   0.00000000    
  -1.29000004E-02   0.00000000    
  -1.28849996E-02   0.00000000    
  -1.28699997E-02   0.00000000    
  -1.28549999E-02   0.00000000    
  -1.28400000E-02   0.00000000    
  -1.28250001E-02   0.00000000    
  -1.28100002E-02   0.00000000    
  -1.27950003E-02   0.00000000    
  -1.27800005E-02   0.00000000    
  -1.27649996E-02   0.00000000    
  -1.27499998E-02   0.00000000    
  -1.27349999E-02   0.00000000    
  -1.27200000E-02   0.00000000    
  -1.27050001E-02   0.00000000    
  -1.26900002E-02   0.00000000    
  -1.26750004E-02   0.00000000    
  -1.26599995E-02   0.00000000    
  -1.26449997E-02   0.00000000    
  -1.26299998E-02   0.00000000    
  -1.26149999E-02   0.00000000    
  -1.26000000E-02   0.00000000    
  -1.25850001E-02   0.00000000    
  -1.25700003E-02   0.00000000    
  -1.25550004E-02   0.00000000    
  -1.25399996E-02   0.00000000    
  -1.25249997E-02   0.00000000    
  -1.25099998E-02   0.00000000    
  -1.24949999E-02   0.00000000    
  -1.24800000E-02   0.00000000    
  -1.24650002E-02   0.00000000    
  -1.24500003E-02   0.00000000    
  -1.24350004E-02   0.00000000    
  -1.24199996E-02   0.00000000    
  -1.24049997E-02   0.00000000    
  -1.23899998E-02   0.00000000    
  -1.23749999E-02   0.00000000    
  -1.23600001E-02   0.00000000    
  -1.23450002E-02   0.00000000    
  -1.23300003E-02   0.00000000    
  -1.23150004E-02   0.00000000    
  -1.22999996E-02   0.00000000    
  -1.22849997E-02   0.00000000    
  -1.22699998E-02   0.00000000    
  -1.22550000E-02   0.00000000    
  -1.22400001E-02   0.00000000    
  -1.22250002E-02   0.00000000    
  -1.22100003E-02   0.00000000    
  -1.21950004E-02   0.00000000    
  -1.21799996E-02   0.00000000    
  -1.21649997E-02   0.00000000    
  -1.21499998E-02   0.00000000    
  -1.21350000E-02   0.00000000    
  -1.21200001E-02   0.00000000    
  -1.21050002E-02   0.00000000    
  -1.20900003E-02   0.00000000    
  -1.20750004E-02   0.00000000    
  -1.20599996E-02   0.00000000    
  -1.20449997E-02   0.00000000    
  -1.20299999E-02   0.00000000    
  -1.20150000E-02   0.00000000    
  -1.20000001E-02   0.00000000    
  -1.19850002E-02   0.00000000    
  -1.19700003E-02   0.00000000    
  -1.19550005E-02   0.00000000    
  -1.19399996E-02   0.00000000    
  -1.19249998E-02   0.00000000    
  -1.19099999E-02   0.00000000    
  -1.18950000E-02   0.00000000    
  -1.18800001E-02   0.00000000    
  -1.18650002E-02   0.00000000    
  -1.18500004E-02   0.00000000    
  -1.18349995E-02   0.00000000    
  -1.18199997E-02   0.00000000    
  -1.18049998E-02   0.00000000    
  -1.17899999E-02   0.00000000    
  -1.17750000E-02   0.00000000    
  -1.17600001E-02   0.00000000    
  -1.17450003E-02   0.00000000    
  -1.17300004E-02   0.00000000    
  -1.17149996E-02   0.00000000    
  -1.16999997E-02   0.00000000    
  -1.16849998E-02   0.00000000    
  -1.16699999E-02   0.00000000    
  -1.16550000E-02   0.00000000    
  -1.16400002E-02   0.00000000    
  -1.16250003E-02   0.00000000    
  -1.16100004E-02   0.00000000    
  -1.15949996E-02   0.00000000    
  -1.15799997E-02   0.00000000    
  -1.15649998E-02   0.00000000    
  -1.15499999E-02   0.00000000    
  -1.15350001E-02   0.00000000    
  -1.15200002E-02   0.00000000    
  -1.15050003E-02   0.00000000    
  -1.14900004E-02   0.00000000    
  -1.14749996E-02   0.00000000    
  -1.14599997E-02   0.00000000    
  -1.14449998E-02   0.00000000    
  -1.14300000E-02   0.00000000    
  -1.14150001E-02   0.00000000    
  -1.14000002E-02   0.00000000    
  -1.13850003E-02   0.00000000    
  -1.13700004E-02   0.00000000    
  -1.13549996E-02   0.00000000    
  -1.13399997E-02   0.00000000    
  -1.13249999E-02   0.00000000    
  -1.13100000E-02   0.00000000    
  -1.12950001E-02   0.00000000    
  -1.12800002E-02   0.00000000    
  -1.12650003E-02   0.00000000    
  -1.12500004E-02   0.00000000    
  -1.12349996E-02   0.00000000    
  -1.12199998E-02   0.00000000    
  -1.12049999E-02   0.00000000    
  -1.11900000E-02   0.00000000    
  -1.11750001E-02   0.00000000    
  -1.11600002E-02   0.00000000    
  -1.11450003E-02   0.00000000    
  -1.11300005E-02   0.00000000    
  -1.11149997E-02   0.00000000    
  -1.10999998E-02   0.00000000    
  -1.10849999E-02   0.00000000    
  -1.10700000E-02   0.00000000    
  -1.10550001E-02   0.00000000    
  -1.10400002E-02   0.00000000    
  -1.10250004E-02   0.00000000    
  -1.10099996E-02   0.00000000    
  -1.09949997E-02   0.00000000    
  -1.09799998E-02   0.00000000    
  -1.09649999E-02   0.00000000    
  -1.09500000E-02   0.00000000    
  -1.09350001E-02   0.00000000    
  -1.09200003E-02   0.00000000    
  -1.09050004E-02   0.00000000    
  -1.08899996E-02   0.00000000    
  -1.08749997E-02   0.00000000    
  -1.08599998E-02   0.00000000    
  -1.08449999E-02   0.00000000    
  -1.08300000E-02   0.00000000    
  -1.08150002E-02   0.00000000    
  -1.08000003E-02   0.00000000    
  -1.07850004E-02   0.00000000    
  -1.07699996E-02   0.00000000    
  -1.07549997E-02   0.00000000    
  -1.07399998E-02   0.00000000    
  -1.07249999E-02   0.00000000    
  -1.07100001E-02   0.00000000    
  -1.06950002E-02   0.00000000    
  -1.06800003E-02   0.00000000    
  -1.06650004E-02   0.00000000    
  -1.06499996E-02   0.00000000    
  -1.06349997E-02   0.00000000    
  -1.06199998E-02   0.00000000    
  -1.06050000E-02   0.00000000    
  -1.05900001E-02   0.00000000    
  -1.05750002E-02   0.00000000    
  -1.05600003E-02   0.00000000    
  -1.05450004E-02   0.00000000    
  -1.05299996E-02   0.00000000    
  -1.05149997E-02   0.00000000    
  -1.04999999E-02   0.00000000    
  -1.04850000E-02   0.00000000    
  -1.04700001E-02   0.00000000    
  -1.04550002E-02   0.00000000    
  -1.04400003E-02   0.00000000    
  -1.04250005E-02   0.00000000    
  -1.04099996E-02   0.00000000    
  -1.03949998E-02   0.00000000    
  -1.03799999E-02   0.00000000    
  -1.03650000E-02   0.00000000    
  -1.03500001E-02   0.00000000    
  -1.03350002E-02   0.00000000    
  -1.03200004E-02   0.00000000    
  -1.03049995E-02   0.00000000    
  -1.02899997E-02   0.00000000    
  -1.02749998E-02   8.69742703E-35
  -1.02599999E-02   1.34610771E-34
  -1.02450000E-02   1.81301212E-34
  -1.02300001E-02   2.23402219E-34
  -1.02150002E-02   2.23402219E-34
  -1.02000004E-02   2.23402219E-34
  -1.01849996E-02   2.23402219E-34
  -1.01699997E-02   2.23402219E-34
  -1.01549998E-02   1.76987434E-34
  -1.01399999E-02   1.00000900E-34
  -1.01250000E-02   0.00000000    
  -1.01100001E-02  -1.44527868E-34
  -1.00950003E-02  -3.22580078E-34
  -1.00800004E-02  -5.30833229E-34
  -1.00649996E-02  -7.63381322E-34
  -1.00499997E-02  -1.01128578E-33
  -1.00349998E-02  -1.26250077E-33
  -1.00199999E-02  -1.50217902E-33
  -1.00050000E-02  -1.71279721E-33
  -9.99000017E-03  -1.87457958E-33
  -9.97500028E-03  -1.92529554E-33
  -9.96000040E-03  -1.87349096E-33
  -9.94499959E-03  -1.60457201E-33
  -9.92999971E-03  -5.74254061E-34
  -9.91499983E-03  -2.72328292E-34
  -9.89999995E-03  -3.20026096E-33
  -9.88500006E-03  -3.04285327E-33
  -9.87000018E-03   1.44771689E-33
  -9.85500030E-03  -8.12055432E-35
  -9.84000042E-03   2.41882354E-33
  -9.82499961E-03   4.82202513E-33
  -9.80999973E-03   6.96788162E-33
  -9.79499985E-03   9.21414333E-33
  -9.77999996E-03   1.26669978E-32
  -9.76500008E-03   2.09804583E-32
  -9.75000020E-03   2.24082754E-32
  -9.73500032E-03   3.15392099E-32
  -9.72000044E-03   3.63714145E-32
  -9.70499963E-03   4.31856288E-32
  -9.68999974E-03   3.94817960E-32
  -9.67499986E-03   4.04982401E-32
  -9.65999998E-03   2.44301845E-32
  -9.64500010E-03   1.88050899E-32
  -9.63000022E-03   2.15120403E-32
  -9.61500034E-03   7.88414567E-33
  -9.60000046E-03  -1.16404393E-32
  -9.58499964E-03  -4.22546491E-32
  -9.56999976E-03  -8.45450626E-32
  -9.55499988E-03  -1.40784080E-31
  -9.54000000E-03  -1.80287261E-31
  -9.52500012E-03  -2.25958579E-31
  -9.51000024E-03  -2.98897345E-31
  -9.49500035E-03  -4.80119148E-31
  -9.47999954E-03  -4.33755911E-31
  -9.46499966E-03  -4.89788905E-31
  -9.44999978E-03  -5.34223579E-31
  -9.43499990E-03  -5.61769267E-31
  -9.42000002E-03  -5.60403202E-31
  -9.40500014E-03  -5.20258518E-31
  -9.39000025E-03  -4.40918010E-31
  -9.37500037E-03  -3.59800977E-31
  -9.35999956E-03  -3.07207667E-31
  -9.34499968E-03  -2.15060970E-31
  -9.32999980E-03  -6.31723653E-32
  -9.31499992E-03   1.20065487E-31
  -9.30000003E-03   3.64116264E-31
  -9.28500015E-03   6.42380532E-31
  -9.27000027E-03   9.34407512E-31
  -9.25500039E-03   1.23371132E-30
  -9.23999958E-03   1.49236437E-30
  -9.22499970E-03   1.73666764E-30
  -9.20999981E-03   1.96603574E-30
  -9.19499993E-03   2.14172174E-30
  -9.18000005E-03   2.33996651E-30
  -9.16500017E-03   2.39322976E-30
  -9.15000029E-03   2.40824769E-30
  -9.13500041E-03   2.20104151E-30
  -9.11999959E-03   2.07292956E-30
  -9.10499971E-03   1.65588259E-30
  -9.08999983E-03   1.20721887E-30
  -9.07499995E-03   6.90459286E-31
  -9.06000007E-03   1.37704767E-31
  -9.04500019E-03  -7.52470327E-31
  -9.03000031E-03  -1.54677885E-30
  -9.01500043E-03  -2.55629321E-30
  -8.99999961E-03  -3.67465365E-30
  -8.98499973E-03  -4.90536200E-30
  -8.96999985E-03  -6.18784891E-30
  -8.95499997E-03  -7.44851300E-30
  -8.94000009E-03  -8.44234250E-30
  -8.92500021E-03  -8.99559597E-30
  -8.91000032E-03  -9.58185882E-30
  -8.89500044E-03  -9.93102767E-30
  -8.87999963E-03  -9.90185660E-30
  -8.86499975E-03  -8.09941864E-30
  -8.84999987E-03  -5.08513402E-30
  -8.83499999E-03  -3.93761761E-31
  -8.82000010E-03   5.58731085E-30
  -8.80500022E-03   1.25246760E-29
  -8.79000034E-03   2.03221344E-29
  -8.77500046E-03   2.87199970E-29
  -8.75999965E-03   3.71528588E-29
  -8.74499977E-03   4.52537113E-29
  -8.72999988E-03   5.25690282E-29
  -8.71500000E-03   5.71241053E-29
  -8.70000012E-03   6.09861546E-29
  -8.68500024E-03   6.24118061E-29
  -8.67000036E-03   6.10452264E-29
  -8.65499955E-03   5.64453715E-29
  -8.63999967E-03   4.81058420E-29
  -8.62499978E-03   3.54687985E-29
  -8.60999990E-03   1.86967910E-29
  -8.59500002E-03  -1.50184986E-30
  -8.58000014E-03  -2.58870413E-29
  -8.56500026E-03  -5.37609381E-29
  -8.55000038E-03  -8.46261983E-29
  -8.53499956E-03  -1.17017866E-28
  -8.51999968E-03  -1.50758883E-28
  -8.50499980E-03  -1.81298390E-28
  -8.48999992E-03  -2.08319368E-28
  -8.47500004E-03  -2.31607039E-28
  -8.46000016E-03  -2.46365320E-28
  -8.44500028E-03  -2.52645272E-28
  -8.43000039E-03  -2.48079927E-28
  -8.41499958E-03  -2.31306834E-28
  -8.39999970E-03  -2.01230020E-28
  -8.38499982E-03  -1.57245728E-28
  -8.36999994E-03  -9.88265312E-29
  -8.35500006E-03  -2.70119047E-29
  -8.34000017E-03   5.67814703E-29
  -8.32500029E-03   1.50415249E-28
  -8.31000041E-03   2.51244880E-28
  -8.29499960E-03   3.57204851E-28
  -8.27999972E-03   4.62046627E-28
  -8.26499984E-03   5.61339293E-28
  -8.24999996E-03   6.48707179E-28
  -8.23500007E-03   7.19471768E-28
  -8.22000019E-03   7.67103530E-28
  -8.20500031E-03   7.85922032E-28
  -8.19000043E-03   7.70270915E-28
  -8.17499962E-03   7.16444013E-28
  -8.15999974E-03   6.20675654E-28
  -8.14499985E-03   4.82455562E-28
  -8.12999997E-03   3.02140684E-28
  -8.11500009E-03   8.22518337E-29
  -8.10000021E-03  -1.72140244E-28
  -8.08500033E-03  -4.54795260E-28
  -8.07000045E-03  -7.56031696E-28
  -8.05499963E-03  -1.06459774E-27
  -8.03999975E-03  -1.36568530E-27
  -8.02499987E-03  -1.64445047E-27
  -8.00999999E-03  -1.88269705E-27
  -7.99500011E-03  -2.06364145E-27
  -7.98000023E-03  -2.17027287E-27
  -7.96500035E-03  -2.18666138E-27
  -7.95000046E-03  -2.09926248E-27
  -7.93499965E-03  -1.89734703E-27
  -7.91999977E-03  -1.57415595E-27
  -7.90499989E-03  -1.12784008E-27
  -7.89000001E-03  -5.64687186E-28
  -7.87500013E-03   1.05339027E-28
  -7.86000025E-03   8.64666952E-28
  -7.84500036E-03   1.68797668E-27
  -7.82999955E-03   2.54356663E-27
  -7.81499967E-03   3.39392113E-27
  -7.79999979E-03   4.19631785E-27
  -7.78499991E-03   4.90357595E-27
  -7.77000003E-03   5.46648791E-27
  -7.75500014E-03   5.83619135E-27
  -7.73999980E-03   5.96652673E-27
  -7.72499992E-03   5.81611391E-27
  -7.71000003E-03   5.35194554E-27
  -7.69500015E-03   4.55158760E-27
  -7.67999981E-03   3.40544628E-27
  -7.66499992E-03   1.92112802E-27
  -7.65000004E-03   1.22741128E-28
  -7.63500016E-03  -1.94515169E-27
  -7.61999981E-03  -4.21950759E-27
  -7.60499993E-03  -6.61672261E-27
  -7.59000005E-03  -9.03445879E-27
  -7.57500017E-03  -1.13548723E-26
  -7.55999982E-03  -1.34471449E-26
  -7.54499994E-03  -1.51742495E-26
  -7.53000006E-03  -1.63960410E-26
  -7.51500018E-03  -1.69768460E-26
  -7.49999983E-03  -1.67927486E-26
  -7.48499995E-03  -1.57395608E-26
  -7.47000007E-03  -1.37404547E-26
  -7.45500019E-03  -1.07532912E-26
  -7.43999984E-03  -6.77941053E-27
  -7.42499996E-03  -1.86920418E-27
  -7.41000008E-03   3.87458432E-27
  -7.39500020E-03   1.02938090E-26
  -7.37999985E-03   1.71733725E-26
  -7.36499997E-03   2.42451022E-26
  -7.35000009E-03   3.11935416E-26
  -7.33500021E-03   3.76630762E-26
  -7.31999986E-03   4.32689344E-26
  -7.30499998E-03   4.76128247E-26
  -7.29000010E-03   5.02991672E-26
  -7.27500021E-03   5.09553793E-26
  -7.25999987E-03   4.92535259E-26
  -7.24499999E-03   4.49306206E-26
  -7.23000010E-03   3.78115083E-26
  -7.21500022E-03   2.78291515E-26
  -7.19999988E-03   1.50423541E-26
  -7.18499999E-03  -3.48440209E-28
  -7.17000011E-03  -1.79924058E-26
  -7.15500023E-03  -3.73820260E-26
  -7.13999989E-03  -5.78571727E-26
  -7.12500000E-03  -7.86158872E-26
  -7.11000012E-03  -9.87300592E-26
  -7.09499978E-03  -1.17172863E-25
  -7.07999989E-03  -1.32853458E-25
  -7.06500001E-03  -1.44659476E-25
  -7.05000013E-03  -1.51504361E-25
  -7.03499978E-03  -1.52382227E-25
  -7.01999990E-03  -1.46424676E-25
  -7.00500002E-03  -1.32959979E-25
  -6.99000014E-03  -1.11569189E-25
  -6.97499979E-03  -8.21383791E-26
  -6.95999991E-03  -4.49071828E-26
  -6.94500003E-03  -4.99612998E-28
  -6.93000015E-03   5.00517546E-26
  -6.91499980E-03   1.05301098E-25
  -6.89999992E-03   1.63399619E-25
  -6.88500004E-03   2.22128859E-25
  -6.87000016E-03   2.78954035E-25
  -6.85499981E-03   3.31097322E-25
  -6.83999993E-03   3.75632587E-25
  -6.82500005E-03   4.09599903E-25
  -6.81000017E-03   4.30130895E-25
  -6.79499982E-03   4.34591559E-25
  -6.77999994E-03   4.20726884E-25
  -6.76500006E-03   3.86810919E-25
  -6.75000018E-03   3.31786490E-25
  -6.73499983E-03   2.55394901E-25
  -6.71999995E-03   1.58284522E-25
  -6.70500007E-03   4.20922620E-26
  -6.69000018E-03  -9.05100915E-26
  -6.67499984E-03  -2.35810197E-25
  -6.65999996E-03  -3.89094770E-25
  -6.64500007E-03  -5.44738382E-25
  -6.63000019E-03  -6.96342805E-25
  -6.61499985E-03  -8.36926102E-25
  -6.59999996E-03  -9.59164536E-25
  -6.58500008E-03  -1.05566727E-24
  -6.57000020E-03  -1.11929551E-24
  -6.55499985E-03  -1.14350131E-24
  -6.53999997E-03  -1.12267933E-24
  -6.52500009E-03  -1.05251824E-24
  -6.51000021E-03  -9.30331670E-25
  -6.49499986E-03  -7.55357292E-25
  -6.47999998E-03  -5.29004601E-25
  -6.46500010E-03  -2.55030669E-25
  -6.45000022E-03   6.03622744E-26
  -6.43499987E-03   4.08527791E-25
  -6.41999999E-03   7.78484870E-25
  -6.40500011E-03   1.15713766E-24
  -6.39000023E-03   1.52961313E-24
  -6.37499988E-03   1.87971039E-24
  -6.36000000E-03   2.19045828E-24
  -6.34500012E-03   2.44475804E-24
  -6.32999977E-03   2.62610987E-24
  -6.31499989E-03   2.71937551E-24
  -6.30000001E-03   2.71156441E-24
  -6.28500013E-03   2.59261621E-24
  -6.26999978E-03   2.35612281E-24
  -6.25499990E-03   1.99997381E-24
  -6.24000002E-03   1.52687134E-24
  -6.22500014E-03   9.44701758E-25
  -6.20999979E-03   2.66703272E-25
  -6.19499991E-03  -4.88566704E-25
  -6.18000003E-03  -1.29750599E-24
  -6.16500014E-03  -2.13199165E-24
  -6.14999980E-03  -2.96013113E-24
  -6.13499992E-03  -3.74727468E-24
  -6.12000003E-03  -4.45722623E-24
  -6.10500015E-03  -5.05363584E-24
  -6.08999981E-03  -5.50154238E-24
  -6.07499992E-03  -5.76898634E-24
  -6.06000004E-03  -5.82865657E-24
  -6.04500016E-03  -5.65948219E-24
  -6.02999981E-03  -5.24808177E-24
  -6.01499993E-03  -4.59005739E-24
  -6.00000005E-03  -3.69096540E-24
  -5.98500017E-03  -2.56696936E-24
  -5.96999982E-03  -1.24509062E-24
  -5.95499994E-03   2.36999848E-25
  -5.94000006E-03   1.83167448E-24
  -5.92500018E-03   3.48252507E-24
  -5.90999983E-03   5.12603197E-24
  -5.89499995E-03   6.69371513E-24
  -5.88000007E-03   8.11461612E-24
  -5.86500019E-03   9.31821749E-24
  -5.84999984E-03   1.02374716E-23
  -5.83499996E-03   1.08120274E-23
  -5.82000008E-03   1.09913812E-23
  -5.80500020E-03   1.07379021E-23
  -5.78999985E-03   1.00295026E-23
  -5.77499997E-03   8.86187093E-24
  -5.76000009E-03   7.25007900E-24
  -5.74500021E-03   5.22950133E-24
  -5.72999986E-03   2.85584036E-24
  -5.71499998E-03   2.04320583E-25
  -5.70000010E-03  -2.63213992E-24
  -5.68500021E-03  -5.54560894E-24
  -5.66999987E-03  -8.41682874E-24
  -5.65499999E-03  -1.11195948E-23
  -5.64000010E-03  -1.35258959E-23
  -5.62500022E-03  -1.55115424E-23
  -5.60999988E-03  -1.69619862E-23
  -5.59500000E-03  -1.77783216E-23
  -5.58000011E-03  -1.78829135E-23
  -5.56500023E-03  -1.72246122E-23
  -5.54999989E-03  -1.57830636E-23
  -5.53500000E-03  -1.35720616E-23
  -5.52000012E-03  -1.06414725E-23
  -5.50499978E-03  -7.07770816E-24
  -5.48999989E-03  -3.00253496E-24
  -5.47500001E-03   1.42992694E-24
  -5.46000013E-03   6.03791139E-24
  -5.44499978E-03   1.06184117E-23
  -5.42999990E-03   1.49551588E-23
  -5.41500002E-03   1.88278079E-23
  -5.40000014E-03   2.20221345E-23
  -5.38499979E-03   2.43407450E-23
  -5.36999991E-03   2.56139144E-23
  -5.35500003E-03   2.57099582E-23
  -5.34000015E-03   2.45446371E-23
  -5.32499980E-03   2.20891388E-23
  -5.30999992E-03   1.83759547E-23
  -5.29500004E-03   1.35023799E-23
  -5.28000016E-03   7.63104044E-24
  -5.26499981E-03   9.87488390E-25
  -5.24999993E-03  -6.14573803E-24
  -5.23500005E-03  -1.34381682E-23
  -5.22000017E-03  -2.05236506E-23
  -5.20499982E-03  -2.70155672E-23
  -5.18999994E-03  -3.25240756E-23
  -5.17500006E-03  -3.66755824E-23
  -5.16000018E-03  -3.91326853E-23
  -5.14499983E-03  -3.96143858E-23
  -5.12999995E-03  -3.79153215E-23
  -5.11500007E-03  -3.39231836E-23
  -5.10000018E-03  -2.76328667E-23
  -5.08499984E-03  -1.91568875E-23
  -5.06999996E-03  -8.73094999E-24
  -5.05500007E-03   3.28610167E-24
  -5.04000019E-03   1.64184705E-23
  -5.02499985E-03   3.00857665E-23
  -5.00999996E-03   4.36216951E-23
  -4.99500008E-03   5.62990275E-23
  -4.98000020E-03   6.73598293E-23
  -4.96499985E-03   7.60497380E-23
  -4.94999997E-03   8.16561851E-23
  -4.93500009E-03   8.35475580E-23
  -4.92000021E-03   8.12125108E-23
  -4.90499986E-03   7.42974129E-23
  -4.88999998E-03   6.26395002E-23
  -4.87500010E-03   4.62942107E-23
  -4.86000022E-03   2.55544674E-23
  -4.84499987E-03   9.60780321E-25
  -4.82999999E-03  -2.67002406E-23
  -4.81500011E-03  -5.64086476E-23
  -4.80000023E-03  -8.69372049E-23
  -4.78499988E-03  -1.16888423E-22
  -4.77000000E-03  -1.44745260E-22
  -4.75500012E-03  -1.68930663E-22
  -4.73999977E-03  -1.87876918E-22
  -4.72499989E-03  -2.00100879E-22
  -4.71000001E-03  -2.04281830E-22
  -4.69500013E-03  -1.99340809E-22
  -4.67999978E-03  -1.84514238E-22
  -4.66499990E-03  -1.59421027E-22
  -4.65000002E-03  -1.24118352E-22
  -4.63500014E-03  -7.91413596E-23
  -4.61999979E-03  -2.55252906E-23
  -4.60499991E-03   3.51940543E-23
  -4.59000003E-03   1.01002241E-22
  -4.57500014E-03   1.69453368E-22
  -4.55999980E-03   2.37739251E-22
  -4.54499992E-03   3.02784985E-22
  -4.53000003E-03   3.61361605E-22
  -4.51500015E-03   4.10218601E-22
  -4.49999981E-03   4.46228751E-22
  -4.48499992E-03   4.66539912E-22
  -4.47000004E-03   4.68727367E-22
  -4.45500016E-03   4.50942378E-22
  -4.43999982E-03   4.12045527E-22
  -4.42499993E-03   3.51721195E-22
  -4.41000005E-03   2.70564523E-22
  -4.39500017E-03   1.70135222E-22
  -4.37999982E-03   5.29727734E-23
  -4.36499994E-03  -7.74303708E-23
  -4.35000006E-03  -2.16701429E-22
  -4.33500018E-03  -3.59701893E-22
  -4.31999983E-03  -5.00690042E-22
  -4.30499995E-03  -6.33520082E-22
  -4.29000007E-03  -7.51874966E-22
  -4.27500019E-03  -8.49528625E-22
  -4.25999984E-03  -9.20620821E-22
  -4.24499996E-03  -9.59942091E-22
  -4.23000008E-03  -9.63209111E-22
  -4.21500020E-03  -9.27321872E-22
  -4.19999985E-03  -8.50590167E-22
  -4.18499997E-03  -7.32913779E-22
  -4.17000009E-03  -5.75910819E-22
  -4.15500021E-03  -3.82975435E-22
  -4.13999986E-03  -1.59268278E-22
  -4.12499998E-03   8.83722881E-23
  -4.11000010E-03   3.51598486E-22
  -4.09500021E-03   6.20797030E-22
  -4.07999987E-03   8.85407786E-22
  -4.06499999E-03   1.13429605E-21
  -4.05000011E-03   1.35619250E-21
  -4.03500022E-03   1.54014749E-21
  -4.01999988E-03   1.67602312E-21
  -4.00500000E-03   1.75496444E-21
  -3.99000011E-03   1.76986702E-21
  -3.97500023E-03   1.71577797E-21
  -3.95999989E-03   1.59025059E-21
  -3.94500000E-03   1.39360496E-21
  -3.93000012E-03   1.12909023E-21
  -3.91499978E-03   8.02932467E-22
  -3.89999989E-03   4.24257877E-22
  -3.88500001E-03   4.89487561E-24
  -3.86999990E-03  -4.40959312E-22
  -3.85500002E-03  -8.97181479E-22
  -3.83999990E-03  -1.34628017E-21
  -3.82500002E-03  -1.77003383E-21
  -3.80999991E-03  -2.15020531E-21
  -3.79500003E-03  -2.46928721E-21
  -3.77999991E-03  -2.71126540E-21
  -3.76500003E-03  -2.86234784E-21
  -3.74999992E-03  -2.91165738E-21
  -3.73500003E-03  -2.85181946E-21
  -3.71999992E-03  -2.67944783E-21
  -3.70500004E-03  -2.39547588E-21
  -3.68999992E-03  -2.00533743E-21
  -3.67500004E-03  -1.51895463E-21
  -3.65999993E-03  -9.50553914E-22
  -3.64500005E-03  -3.18278668E-22
  -3.62999993E-03   3.56362322E-22
  -3.61500005E-03   1.04922085E-21
  -3.59999994E-03   1.73437399E-21
  -3.58500006E-03   2.38509431E-21
  -3.56999994E-03   2.97489348E-21
  -3.55500006E-03   3.47860426E-21
  -3.53999995E-03   3.87344164E-21
  -3.52500007E-03   4.14001110E-21
  -3.50999995E-03   4.26320891E-21
  -3.49500007E-03   4.23298612E-21
  -3.47999996E-03   4.04492450E-21
  -3.46500007E-03   3.70059805E-21
  -3.44999996E-03   3.20770807E-21
  -3.43500008E-03   2.57996139E-21
  -3.41999996E-03   1.83670628E-21
  -3.40500008E-03   1.00232298E-21
  -3.38999997E-03   1.05388434E-22
  -3.37500009E-03  -8.22347281E-22
  -3.35999997E-03  -1.74714581E-21
  -3.34500009E-03  -2.63456985E-21
  -3.32999998E-03  -3.45083596E-21
  -3.31500010E-03  -4.16416130E-21
  -3.29999998E-03  -4.74606266E-21
  -3.28500010E-03  -5.17254172E-21
  -3.26999999E-03  -5.42509555E-21
  -3.25500011E-03  -5.49153940E-21
  -3.23999999E-03  -5.36656283E-21
  -3.22500011E-03  -5.05201650E-21
  -3.21000000E-03  -4.55690609E-21
  -3.19500011E-03  -3.89710474E-21
  -3.18000000E-03  -3.09475974E-21
  -3.16499989E-03  -2.17745320E-21
  -3.15000000E-03  -1.17713324E-21
  -3.13499989E-03  -1.28857425E-22
  -3.12000001E-03   9.30585358E-22
  -3.10499989E-03   1.96412603E-21
  -3.09000001E-03   2.93587584E-21
  -3.07499990E-03   3.81251179E-21
  -3.06000002E-03   4.56456760E-21
  -3.04499990E-03   5.16752694E-21
  -3.03000002E-03   5.60270714E-21
  -3.01499991E-03   5.85787621E-21
  -3.00000003E-03   5.92758354E-21
  -2.98499991E-03   5.81320159E-21
  -2.97000003E-03   5.52266045E-21
  -2.95499992E-03   5.06991963E-21
  -2.94000003E-03   4.47417672E-21
  -2.92499992E-03   3.75888682E-21
  -2.91000004E-03   2.95061767E-21
  -2.89499993E-03   2.07780944E-21
  -2.88000004E-03   1.16951828E-21
  -2.86499993E-03   2.54174745E-22
  -2.85000005E-03  -6.41550307E-22
  -2.83499993E-03  -1.49373672E-21
  -2.82000005E-03  -2.28200289E-21
  -2.80499994E-03  -2.99006283E-21
  -2.79000006E-03  -3.60602320E-21
  -2.77499994E-03  -4.12242180E-21
  -2.76000006E-03  -4.53600443E-21
  -2.74499995E-03  -4.84726304E-21
  -2.73000007E-03  -5.05978747E-21
  -2.71499995E-03  -5.17944795E-21
  -2.70000007E-03  -5.21350453E-21
  -2.68499996E-03  -5.16965870E-21
  -2.67000007E-03  -5.05517093E-21
  -2.65499996E-03  -4.87605482E-21
  -2.64000008E-03  -4.63643659E-21
  -2.62499996E-03  -4.33813661E-21
  -2.61000008E-03  -3.98047833E-21
  -2.59499997E-03  -3.56039054E-21
  -2.58000009E-03  -3.07277564E-21
  -2.56499997E-03  -2.51114323E-21
  -2.55000009E-03  -1.86850084E-21
  -2.53499998E-03  -1.13842610E-21
  -2.52000010E-03  -3.16250904E-22
  -2.50499998E-03   5.99672926E-22
  -2.49000010E-03   1.60674139E-21
  -2.47499999E-03   2.69699250E-21
  -2.46000011E-03   3.85619687E-21
  -2.44499999E-03   5.06323231E-21
  -2.43000011E-03   6.28982524E-21
  -2.41500000E-03   7.50067669E-21
  -2.40000011E-03   8.65408958E-21
  -2.38500000E-03   9.70300388E-21
  -2.36999989E-03   1.05965262E-20
  -2.35500000E-03   1.12818824E-20
  -2.33999989E-03   1.17066777E-20
  -2.32500001E-03   1.18214764E-20
  -2.30999989E-03   1.15825182E-20
  -2.29500001E-03   1.09545039E-20
  -2.27999990E-03   9.91320711E-21
  -2.26500002E-03   8.44795601E-21
  -2.24999990E-03   6.56361717E-21
  -2.23500002E-03   4.28216419E-21
  -2.21999991E-03   1.64353285E-21
  -2.20500003E-03  -1.29420505E-21
  -2.18999991E-03  -4.45548155E-21
  -2.17500003E-03  -7.74867982E-21
  -2.15999992E-03  -1.10684569E-20