  -1.49999997E-02   0.00000000    
  -1.49849998E-02   0.00000000    
  -1.49699999E-02   0.00000000    
  -1.49550000E-02   0.00000000    
  -1.49400001E-02   0.00000000    
  -1.49250003E-02   0.00000000    
  -1.49100004E-02  -1.60762662E-34
  -1.48949996E-02  -2.38667542E-33
  -1.48799997E-02  -1.87034008E-32
  -1.48649998E-02  -1.03068967E-31
  -1.48499999E-02  -4.48578942E-31
  -1.48350000E-02  -1.64146633E-30
  -1.48200002E-02  -5.25034834E-30
  -1.48050003E-02  -1.50697443E-29
  -1.47900004E-02  -3.95482071E-29
  -1.47749996E-02  -9.62303295E-29
  -1.47599997E-02  -2.19441565E-28
  -1.47449998E-02  -4.72950616E-28
  -1.47299999E-02  -9.69952342E-28
  -1.47150001E-02  -1.90340253E-27
  -1.47000002E-02  -3.59046690E-27
  -1.46850003E-02  -6.53555621E-27
  -1.46700004E-02  -1.15170279E-26
  -1.46549996E-02  -1.97029983E-26
  -1.46399997E-02  -3.28017578E-26
  -1.46249998E-02  -5.32517596E-26
  -1.46100000E-02  -8.44549678E-26
  -1.45950001E-02  -1.31055262E-25
  -1.45800002E-02  -1.99260496E-25
  -1.45650003E-02  -2.97202335E-25
  -1.45500004E-02  -4.35322586E-25
  -1.45349996E-02  -6.26766999E-25
  -1.45199997E-02  -8.87759411E-25
  -1.45049999E-02  -1.23791938E-24
  -1.44900000E-02  -1.70047429E-24
  -1.44750001E-02  -2.30230515E-24
  -1.44600002E-02  -3.07375510E-24
  -1.44450003E-02  -4.04811073E-24
  -1.44300004E-02  -5.26066331E-24
  -1.44149996E-02  -6.74723934E-24
  -1.43999998E-02  -8.54208565E-24
  -1.43849999E-02  -1.06749920E-23
  -1.43700000E-02  -1.31675171E-23
  -1.43550001E-02  -1.60282305E-23
  -1.43400002E-02  -1.92468382E-23
  -1.43250003E-02  -2.27871323E-23
  -1.43100005E-02  -2.65786992E-23
  -1.42949997E-02  -3.05073685E-23
  -1.42799998E-02  -3.44044297E-23
  -1.42649999E-02  -3.80347392E-23
  -1.42500000E-02  -4.10838002E-23
  -1.42350001E-02  -4.31441061E-23
  -1.42200002E-02  -4.37010293E-23
  -1.42050004E-02  -4.21186627E-23
  -1.41899996E-02  -3.76261030E-23
  -1.41749997E-02  -2.93047406E-23
  -1.41599998E-02  -1.60773260E-23
  -1.41449999E-02   3.30052342E-24
  -1.41300000E-02   3.02454225E-23
  -1.41150001E-02   6.63469634E-23
  -1.41000003E-02   1.13363288E-22
  -1.40850004E-02   1.73210239E-22
  -1.40699996E-02   2.47942921E-22
  -1.40549997E-02   3.39729146E-22
  -1.40399998E-02   4.50812979E-22
  -1.40249999E-02   5.83468233E-22
  -1.40100000E-02   7.39939968E-22
  -1.39950002E-02   9.22374642E-22
  -1.39800003E-02   1.13273741E-21
  -1.39650004E-02   1.37271592E-21
  -1.39499996E-02   1.64361222E-21
  -1.39349997E-02   1.94622128E-21
  -1.39199998E-02   2.28069709E-21
  -1.39049999E-02   2.64640826E-21
  -1.38900001E-02   3.04178343E-21
  -1.38750002E-02   3.46414880E-21
  -1.38600003E-02   3.90956092E-21
  -1.38450004E-02   4.37263505E-21
  -1.38299996E-02   4.84637528E-21
  -1.38149997E-02   5.32201059E-21
  -1.37999998E-02   5.78883772E-21
  -1.37850000E-02   6.23407859E-21
  -1.37700001E-02   6.64275832E-21
  -1.37550002E-02   6.99760871E-21
  -1.37400003E-02   7.27900279E-21
  -1.37250004E-02   7.46492940E-21
  -1.37099996E-02   7.53101176E-21
  -1.36949997E-02   7.45058299E-21
  -1.36799999E-02   7.19482101E-21
  -1.36650000E-02   6.73294726E-21
  -1.36500001E-02   6.03250987E-21
  -1.36350002E-02   5.05974021E-21
  -1.36200003E-02   3.78001022E-21
  -1.36050005E-02   2.15836807E-21
  -1.35899996E-02   1.60182145E-22
  -1.35749998E-02  -2.24810484E-21
  -1.35599999E-02  -5.09814232E-21
  -1.35450000E-02  -8.41870581E-21
  -1.35300001E-02  -1.22346507E-20
  -1.35150002E-02  -1.65657652E-20
  -1.35000004E-02  -2.14255321E-20
  -1.34849995E-02  -2.68198256E-20
  -1.34699997E-02  -3.27455246E-20
  -1.34549998E-02  -3.91891065E-20
  -1.34399999E-02  -4.61252033E-20
  -1.34250000E-02  -5.35151897E-20
  -1.34100001E-02  -6.13057673E-20
  -1.33950002E-02  -6.94276340E-20
  -1.33800004E-02  -7.77943010E-20
  -1.33649996E-02  -8.63010005E-20
  -1.33499997E-02  -9.48237978E-20
  -1.33349998E-02  -1.03219028E-19
  -1.33199999E-02  -1.11322897E-19
  -1.33050000E-02  -1.18951532E-19
  -1.32900001E-02  -1.25901361E-19
  -1.32750003E-02  -1.31949990E-19
  -1.32600004E-02  -1.36857536E-19
  -1.32449996E-02  -1.40368492E-19
  -1.32299997E-02  -1.42214151E-19
  -1.32149998E-02  -1.42115743E-19
  -1.31999999E-02  -1.39787992E-19
  -1.31850000E-02  -1.34943492E-19
  -1.31700002E-02  -1.27297590E-19
  -1.31550003E-02  -1.16573930E-19
  -1.31400004E-02  -1.02510632E-19
  -1.31249996E-02  -8.48668568E-20
  -1.31099997E-02  -6.34299542E-20
  -1.30949998E-02  -3.80229207E-20
  -1.30799999E-02  -8.51218287E-21
  -1.30650001E-02   2.51846123E-20
  -1.30500002E-02   6.30906874E-20
  -1.30350003E-02   1.05162399E-19
  -1.30200004E-02   1.51281989E-19
  -1.30049996E-02   2.01250717E-19
  -1.29899997E-02   2.54782770E-19
  -1.29749998E-02   3.11500192E-19
  -1.29600000E-02   3.70928983E-19
  -1.29450001E-02   4.32496476E-19
  -1.29300002E-02   4.95530404E-19
  -1.29150003E-02   5.59259604E-19
  -1.29000004E-02   6.22816802E-19
  -1.28849996E-02   6.85243399E-19
  -1.28699997E-02   7.45496579E-19
  -1.28549999E-02   8.02458459E-19
  -1.28400000E-02   8.54947877E-19
  -1.28250001E-02   9.01734091E-19
  -1.28100002E-02   9.41553428E-19
  -1.27950003E-02   9.73126705E-19
  -1.27800005E-02   9.95180788E-19
  -1.27649996E-02   1.00646932E-18
  -1.27499998E-02   1.00579682E-18
  -1.27349999E-02   9.92042982E-19
  -1.27200000E-02   9.64187882E-19
  -1.27050001E-02   9.21337134E-19
  -1.26900002E-02   8.62747259E-19
  -1.26750004E-02   7.87849622E-19
  -1.26599995E-02   6.96273232E-19
  -1.26449997E-02   5.87865888E-19
  -1.26299998E-02   4.62712117E-19
  -1.26149999E-02   3.21148866E-19
  -1.26000000E-02   1.63776811E-19
  -1.25850001E-02  -8.53202713E-21
  -1.25700003E-02  -1.94631294E-19
  -1.25550004E-02  -3.93102361E-19
  -1.25399996E-02  -6.02261364E-19
  -1.25249997E-02  -8.20171394E-19
  -1.25099998E-02  -1.04466035E-18
  -1.24949999E-02  -1.27334405E-18
  -1.24800000E-02  -1.50365419E-18
  -1.24650002E-02  -1.73287121E-18
  -1.24500003E-02  -1.95816130E-18
  -1.24350004E-02  -2.17661742E-18
  -1.24199996E-02  -2.38530185E-18
  -1.24049997E-02  -2.58129279E-18
  -1.23899998E-02  -2.76173066E-18
  -1.23749999E-02  -2.92386509E-18
  -1.23600001E-02  -3.06509956E-18
  -1.23450002E-02  -3.18303566E-18
  -1.23300003E-02  -3.27551260E-18
  -1.23150004E-02  -3.34064273E-18
  -1.22999996E-02  -3.37684077E-18
  -1.22849997E-02  -3.38284838E-18
  -1.22699998E-02  -3.35774965E-18
  -1.22550000E-02  -3.30097880E-18
  -1.22400001E-02  -3.21231931E-18
  -1.22250002E-02  -3.09189463E-18
  -1.22100003E-02  -2.94015000E-18
  -1.21950004E-02  -2.75782554E-18
  -1.21799996E-02  -2.54591965E-18
  -1.21649997E-02  -2.30564850E-18
  -1.21499998E-02  -2.03839678E-18
  -1.21350000E-02  -1.74566335E-18
  -1.21200001E-02  -1.42900538E-18
  -1.21050002E-02  -1.08997982E-18
  -1.20900003E-02  -7.30085687E-19
  -1.20750004E-02  -3.50709587E-19
  -1.20599996E-02   4.69243696E-20
  -1.20449997E-02   4.61795704E-19
  -1.20299999E-02   8.93120556E-19
  -1.20150000E-02   1.34037215E-18
  -1.20000001E-02   1.80328724E-18
  -1.19850002E-02   2.28185589E-18
  -1.19700003E-02   2.77629524E-18
  -1.19550005E-02   3.28700524E-18
  -1.19399996E-02   3.81450493E-18
  -1.19249998E-02   4.35934812E-18
  -1.19099999E-02   4.92202532E-18
  -1.18950000E-02   5.50284260E-18
  -1.18800001E-02   6.10179043E-18
  -1.18650002E-02   6.71839816E-18
  -1.18500004E-02   7.35157514E-18
  -1.18349995E-02   7.99945360E-18
  -1.18199997E-02   8.65922196E-18
  -1.18049998E-02   9.32696930E-18
  -1.17899999E-02   9.99753319E-18
  -1.17750000E-02   1.06643615E-17
  -1.17600001E-02   1.13194042E-17
  -1.17450003E-02   1.19530196E-17
  -1.17300004E-02   1.25539233E-17
  -1.17149996E-02   1.31091658E-17
  -1.16999997E-02   1.36041656E-17
  -1.16849998E-02   1.40227777E-17
  -1.16699999E-02   1.43474246E-17
  -1.16550000E-02   1.45592821E-17
  -1.16400002E-02   1.46385127E-17
  -1.16250003E-02   1.45645711E-17
  -1.16100004E-02   1.43165476E-17
  -1.15949996E-02   1.38735899E-17
  -1.15799997E-02   1.32153568E-17
  -1.15649998E-02   1.23225270E-17
  -1.15499999E-02   1.11773392E-17
  -1.15350001E-02   9.76417065E-18
  -1.15200002E-02   8.07012626E-18
  -1.15050003E-02   6.08563766E-18
  -1.14900004E-02   3.80506266E-18
  -1.14749996E-02   1.22725592E-18
  -1.14599997E-02  -1.64389201E-18
  -1.14449998E-02  -4.79896070E-18
  -1.14300000E-02  -8.22257647E-18
  -1.14150001E-02  -1.18930680E-17
  -1.14000002E-02  -1.57822206E-17
  -1.13850003E-02  -1.98551372E-17
  -1.13700004E-02  -2.40702180E-17
  -1.13549996E-02  -2.83792863E-17
  -1.13399997E-02  -3.27278443E-17
  -1.13249999E-02  -3.70554945E-17
  -1.13100000E-02  -4.12964858E-17
  -1.12950001E-02  -4.53804486E-17
  -1.12800002E-02  -4.92332607E-17
  -1.12650003E-02  -5.27780505E-17
  -1.12500004E-02  -5.59363684E-17
  -1.12349996E-02  -5.86294435E-17
  -1.12199998E-02  -6.07795837E-17
  -1.12049999E-02  -6.23116016E-17
  -1.11900000E-02  -6.31544060E-17
  -1.11750001E-02  -6.32425172E-17
  -1.11600002E-02  -6.25176556E-17
  -1.11450003E-02  -6.09302761E-17
  -1.11300005E-02  -5.84410911E-17
  -1.11149997E-02  -5.50224331E-17
  -1.10999998E-02  -5.06595649E-17
  -1.10849999E-02  -4.53517719E-17
  -1.10700000E-02  -3.91133180E-17
  -1.10550001E-02  -3.19741372E-17
  -1.10400002E-02  -2.39803084E-17
  -1.10250004E-02  -1.51942391E-17
  -1.10099996E-02  -5.69457976E-18
  -1.09949997E-02   4.42419246E-18
  -1.09799998E-02   1.50524885E-17
  -1.09649999E-02   2.60666382E-17
  -1.09500000E-02   3.73302574E-17
  -1.09350001E-02   4.86959043E-17
  -1.09200003E-02   6.00070301E-17
  -1.09050004E-02   7.11001904E-17
  -1.08899996E-02   8.18075207E-17
  -1.08749997E-02   9.19593760E-17
  -1.08599998E-02   1.01387210E-16
  -1.08449999E-02   1.09926407E-16
  -1.08300000E-02   1.17419373E-16
  -1.08150002E-02   1.23718532E-16
  -1.08000003E-02   1.28689186E-16
  -1.07850004E-02   1.32212460E-16
  -1.07699996E-02   1.34187965E-16
  -1.07549997E-02   1.34536189E-16
  -1.07399998E-02   1.33200682E-16
  -1.07249999E-02   1.30149868E-16
  -1.07100001E-02   1.25378452E-16
  -1.06950002E-02   1.18908444E-16
  -1.06800003E-02   1.10789673E-16
  -1.06650004E-02   1.01099755E-16
  -1.06499996E-02   8.99436890E-17
  -1.06349997E-02   7.74527787E-17
  -1.06199998E-02   6.37830632E-17
  -1.06050000E-02   4.91133294E-17
  -1.05900001E-02   3.36425108E-17
  -1.05750002E-02   1.75866936E-17
  -1.05600003E-02   1.17568711E-18
  -1.05450004E-02  -1.53507731E-17
  -1.05299996E-02  -3.17471059E-17
  -1.05149997E-02  -4.77662062E-17
  -1.04999999E-02  -6.31638954E-17
  -1.04850000E-02  -7.77034872E-17
  -1.04700001E-02  -9.11602666E-17
  -1.04550002E-02  -1.03325936E-16
  -1.04400003E-02  -1.14012779E-16
  -1.04250005E-02  -1.23057635E-16
  -1.04099996E-02  -1.30325363E-16
  -1.03949998E-02  -1.35711989E-16
  -1.03799999E-02  -1.39147264E-16
  -1.03650000E-02  -1.40596564E-16
  -1.03500001E-02  -1.40062258E-16
  -1.03350002E-02  -1.37584263E-16
  -1.03200004E-02  -1.33239977E-16
  -1.03049995E-02  -1.27143378E-16
  -1.02899997E-02  -1.19443425E-16
  -1.02749998E-02  -1.10321707E-16
  -1.02599999E-02  -9.99893344E-17
  -1.02450000E-02  -8.86832643E-17
  -1.02300001E-02  -7.66619279E-17
  -1.02150002E-02  -6.42002998E-17
  -1.02000004E-02  -5.15845844E-17
  -1.01849996E-02  -3.91064391E-17
  -1.01699997E-02  -2.70569786E-17
  -1.01549998E-02  -1.57206106E-17
  -1.01399999E-02  -5.36882528E-18
  -1.01250000E-02   3.74595441E-18
  -1.01100001E-02   1.13963146E-17
  -1.00950003E-02   1.73854819E-17
  -1.00800004E-02   2.15525184E-17
  -1.00649996E-02   2.37769907E-17
  -1.00499997E-02   2.39829653E-17
  -1.00349998E-02   2.21422883E-17
  -1.00199999E-02   1.82770337E-17
  -1.00050000E-02   1.24610756E-17
  -9.99000017E-03   4.82067378E-18
  -9.97500028E-03  -4.46588526E-18
  -9.96000040E-03  -1.51696735E-17
  -9.94499959E-03  -2.70135301E-17
  -9.92999971E-03  -3.96754567E-17
  -9.91499983E-03  -5.27930027E-17
  -9.89999995E-03  -6.59685803E-17
  -9.88500006E-03  -7.87756523E-17
  -9.87000018E-03  -9.07656551E-17
  -9.85500030E-03  -1.01475751E-16
  -9.84000042E-03  -1.10437056E-16
  -9.82499961E-03  -1.17183422E-16
  -9.80999973E-03  -1.21260549E-16
  -9.79499985E-03  -1.22235364E-16
  -9.77999996E-03  -1.19705409E-16
  -9.76500008E-03  -1.13308325E-16
  -9.75000020E-03  -1.02730988E-16
  -9.73500032E-03  -8.77184342E-17
  -9.72000044E-03  -6.80822319E-17
  -9.70499963E-03  -4.37082500E-17
  -9.68999974E-03  -1.45636942E-17
  -9.67499986E-03   1.92967506E-17
  -9.65999998E-03   5.77258181E-17
  -9.64500010E-03   1.00479621E-16
  -9.63000022E-03   1.47214882E-16
  -9.61500034E-03   1.97487479E-16
  -9.60000046E-03   2.50752351E-16
  -9.58499964E-03   3.06365014E-16
  -9.56999976E-03   3.63584472E-16
  -9.55499988E-03   4.21577748E-16
  -9.54000000E-03   4.79426207E-16
  -9.52500012E-03   5.36133104E-16
  -9.51000024E-03   5.90633480E-16
  -9.49500035E-03   6.41804699E-16
  -9.47999954E-03   6.88479550E-16
  -9.46499966E-03   7.29460380E-16
  -9.44999978E-03   7.63534663E-16
  -9.43499990E-03   7.89492146E-16
  -9.42000002E-03   8.06143120E-16
  -9.40500014E-03   8.12337948E-16
  -9.39000025E-03   8.06987400E-16
  -9.37500037E-03   7.89083823E-16
  -9.35999956E-03   7.57722587E-16
  -9.34499968E-03   7.12124316E-16
  -9.32999980E-03   6.51656910E-16
  -9.31499992E-03   5.75856831E-16
  -9.30000003E-03   4.84450542E-16
  -9.28500015E-03   3.77374221E-16
  -9.27000027E-03   2.54792884E-16
  -9.25500039E-03   1.17116996E-16
  -9.23999958E-03  -3.49827387E-17
  -9.22499970E-03  -2.00562923E-16
  -9.20999981E-03  -3.78398443E-16
  -9.19499993E-03  -5.66976697E-16
  -9.18000005E-03  -7.64495622E-16
  -9.16500017E-03  -9.68866037E-16
  -9.15000029E-03  -1.17771874E-15
  -9.13500041E-03  -1.38841586E-15
  -9.11999959E-03  -1.59806847E-15
  -9.10499971E-03  -1.80355846E-15
  -9.08999983E-03  -2.00156723E-15
  -9.07499995E-03  -2.18860862E-15
  -9.06000007E-03  -2.36106877E-15
  -9.04500019E-03  -2.51524994E-15
  -9.03000031E-03  -2.64742181E-15
  -9.01500043E-03  -2.75387521E-15
  -8.99999961E-03  -2.83098168E-15
  -8.98499973E-03  -2.87525609E-15
  -8.96999985E-03  -2.88342445E-15
  -8.95499997E-03  -2.85248975E-15
  -8.94000009E-03  -2.77980458E-15
  -8.92500021E-03  -2.66313871E-15
  -8.91000032E-03  -2.50074979E-15
  -8.89500044E-03  -2.29144880E-15
  -8.87999963E-03  -2.03466398E-15
  -8.86499975E-03  -1.73049975E-15
  -8.84999987E-03  -1.37978713E-15
  -8.83499999E-03  -9.84129041E-16
  -8.82000010E-03  -5.45934704E-16
  -8.80500022E-03  -6.84441400E-17
  -8.79000034E-03   4.44259834E-16
  -8.77500046E-03   9.87251946E-16
  -8.75999965E-03   1.55477969E-15
  -8.74499977E-03   2.14029238E-15
  -8.72999988E-03   2.73648732E-15
  -8.71500000E-03   3.33537095E-15
  -8.70000012E-03   3.92833637E-15
  -8.68500024E-03   4.50625763E-15
  -8.67000036E-03   5.05959842E-15
  -8.65499955E-03   5.57853654E-15
  -8.63999967E-03   6.05310327E-15
  -8.62499978E-03   6.47333326E-15
  -8.60999990E-03   6.82942548E-15
  -8.59500002E-03   7.11191394E-15
  -8.58000014E-03   7.31184420E-15
  -8.56500026E-03   7.42095306E-15
  -8.55000038E-03   7.43184844E-15
  -8.53499956E-03   7.33818862E-15
  -8.51999968E-03   7.13485582E-15
  -8.50499980E-03   6.81811759E-15
  -8.48999992E-03   6.38577927E-15
  -8.47500004E-03   5.83731739E-15
  -8.46000016E-03   5.17399446E-15
  -8.44500028E-03   4.39895465E-15
  -8.43000039E-03   3.51728674E-15
  -8.41499958E-03   2.53606217E-15
  -8.39999970E-03   1.46434368E-15
  -8.38499982E-03   3.13155598E-16
  -8.36999994E-03  -9.04576342E-16
  -8.35500006E-03  -2.17412330E-15
  -8.34000017E-03  -3.47908703E-15
  -8.32500029E-03  -4.80157143E-15
  -8.31000041E-03  -6.12238802E-15
  -8.29499960E-03  -7.42129611E-15
  -8.27999972E-03  -8.67727402E-15
  -8.26499984E-03  -9.86881983E-15
  -8.24999996E-03  -1.09742783E-14
  -8.23500007E-03  -1.19721839E-14
  -8.22000019E-03  -1.28416302E-14
  -8.20500031E-03  -1.35626348E-14
  -8.19000043E-03  -1.41165240E-14
  -8.17499962E-03  -1.44863064E-14
  -8.15999974E-03  -1.46570395E-14
  -8.14499985E-03  -1.46161871E-14
  -8.12999997E-03  -1.43539457E-14
  -8.11500009E-03  -1.38635475E-14
  -8.10000021E-03  -1.31415247E-14
  -8.08500033E-03  -1.21879359E-14
  -8.07000045E-03  -1.10065392E-14
  -8.05499963E-03  -9.60491401E-15
  -8.03999975E-03  -7.99452735E-15
  -8.02499987E-03  -6.19072834E-15
  -8.00999999E-03  -4.21268702E-15
  -7.99500011E-03  -2.08326123E-15
  -7.98000023E-03   1.71205820E-16
  -7.96500035E-03   2.52115291E-15
  -7.95000046E-03   4.93413844E-15
  -7.93499965E-03   7.37524039E-15
  -7.91999977E-03   9.80751667E-15
  -7.90499989E-03   1.21925184E-14
  -7.89000001E-03   1.44908584E-14
  -7.87500013E-03   1.66628067E-14
  -7.86000025E-03   1.86689382E-14
  -7.84500036E-03   2.04707789E-14
  -7.82999955E-03   2.20314896E-14
  -7.81499967E-03   2.33165284E-14
  -7.79999979E-03   2.42943229E-14
  -7.78499991E-03   2.49368956E-14
  -7.77000003E-03   2.52204856E-14
  -7.75500014E-03   2.51261024E-14
  -7.73999980E-03   2.46400275E-14
  -7.72499992E-03   2.37542530E-14
  -7.71000003E-03   2.24668357E-14
  -7.69500015E-03   2.07821702E-14
  -7.67999981E-03   1.87111577E-14
  -7.66499992E-03   1.62712861E-14
  -7.65000004E-03   1.34865882E-14
  -7.63500016E-03   1.03875064E-14
  -7.61999981E-03   7.01062447E-15
  -7.60499993E-03   3.39830529E-15
  -7.59000005E-03  -4.01785976E-16
  -7.57500017E-03  -4.33726736E-15
  -7.55999982E-03  -8.35171945E-15
  -7.54499994E-03  -1.23854640E-14
  -7.53000006E-03  -1.63764113E-14
  -7.51500018E-03  -2.02609891E-14
  -7.49999983E-03  -2.39751185E-14
  -7.48499995E-03  -2.74552330E-14
  -7.47000007E-03  -3.06393298E-14
  -7.45500019E-03  -3.34680200E-14
  -7.43999984E-03  -3.58855706E-14
  -7.42499996E-03  -3.78409293E-14
  -7.41000008E-03  -3.92887085E-14
  -7.39500020E-03  -4.01900667E-14
  -7.37999985E-03  -4.05135689E-14
  -7.36499997E-03  -4.02359115E-14
  -7.35000009E-03  -3.93425459E-14
  -7.33500021E-03  -3.78281865E-14
  -7.31999986E-03  -3.56971532E-14
  -7.30499998E-03  -3.29636017E-14
  -7.29000010E-03  -2.96515945E-14
  -7.27500021E-03  -2.57949773E-14
  -7.25999987E-03  -2.14371232E-14
  -7.24499999E-03  -1.66305212E-14
  -7.23000010E-03  -1.14361704E-14
  -7.21500022E-03  -5.92285501E-15
  -7.19999988E-03  -1.66246429E-16
  -7.18499999E-03   5.75211731E-15
  -7.17000011E-03   1.17459770E-14
  -7.15500023E-03   1.77256061E-14
  -7.13999989E-03   2.35991494E-14
  -7.12500000E-03   2.92740414E-14
  -7.11000012E-03   3.46584435E-14
  -7.09499978E-03   3.96627582E-14
  -7.07999989E-03   4.42010727E-14
  -7.06500001E-03   4.81926375E-14
  -7.05000013E-03   5.15632696E-14
  -7.03499978E-03   5.42466937E-14
  -7.01999990E-03   5.61857689E-14
  -7.00500002E-03   5.73336205E-14
  -6.99000014E-03   5.76546257E-14
  -6.97499979E-03   5.71252030E-14
  -6.95999991E-03   5.57345070E-14
  -6.94500003E-03   5.34848417E-14
  -6.93000015E-03   5.03919348E-14
  -6.91499980E-03   4.64849750E-14
  -6.89999992E-03   4.18064529E-14
  -6.88500004E-03   3.64117611E-14
  -6.87000016E-03   3.03685977E-14
  -6.85499981E-03   2.37561588E-14
  -6.83999993E-03   1.66641179E-14
  -6.82500005E-03   9.19143657E-15
  -6.81000017E-03   1.44498908E-15
  -6.79499982E-03  -6.46195760E-15
  -6.77999994E-03  -1.44114016E-14
  -6.76500006E-03  -2.22823689E-14
  -6.75000018E-03  -2.99527520E-14
  -6.73499983E-03  -3.73012100E-14
  -6.71999995E-03  -4.42090924E-14
  -6.70500007E-03  -5.05623443E-14
  -6.69000018E-03  -5.62533825E-14
  -6.67499984E-03  -6.11829042E-14
  -6.65999996E-03  -6.52615982E-14
  -6.64500007E-03  -6.84117070E-14
  -6.63000019E-03  -7.05685036E-14
  -6.61499985E-03  -7.16814778E-14
  -6.59999996E-03  -7.17154133E-14
  -6.58500008E-03  -7.06512350E-14
  -6.57000020E-03  -6.84865305E-14
  -6.55499985E-03  -6.52359297E-14
  -6.53999997E-03  -6.09311660E-14
  -6.52500009E-03  -5.56208759E-14
  -6.51000021E-03  -4.93701353E-14
  -6.49499986E-03  -4.22597409E-14
  -6.47999998E-03  -3.43852076E-14
  -6.46500010E-03  -2.58555452E-14
  -6.45000022E-03  -1.67918014E-14
  -6.43499987E-03  -7.32537386E-15
  -6.41999999E-03   2.40383673E-15
  -6.40500011E-03   1.22494610E-14
  -6.39000023E-03   2.20608139E-14
  -6.37499988E-03   3.16851580E-14
  -6.36000000E-03   4.09700248E-14
  -6.34500012E-03   4.97655878E-14
  -6.32999977E-03   5.79269976E-14
  -6.31499989E-03   6.53167299E-14
  -6.30000001E-03   7.18067980E-14
  -6.28500013E-03   7.72809144E-14
  -6.26999978E-03   8.16364391E-14
  -6.25499990E-03   8.47862294E-14
  -6.24000002E-03   8.66601848E-14
  -6.22500014E-03   8.72066633E-14
  -6.20999979E-03   8.63935456E-14
  -6.19499991E-03   8.42090544E-14
  -6.18000003E-03   8.06622970E-14
  -6.16500014E-03   7.57834279E-14
  -6.14999980E-03   6.96235807E-14
  -6.13499992E-03   6.22544212E-14
  -6.12000003E-03   5.37673848E-14
  -6.10500015E-03   4.42726300E-14
  -6.08999981E-03   3.38976555E-14
  -6.07499992E-03   2.27856488E-14
  -6.06000004E-03   1.10935609E-14
  -6.04500016E-03  -1.01003618E-15
  -6.02999981E-03  -1.33473351E-14
  -6.01499993E-03  -2.57338367E-14
  -6.00000005E-03  -3.79810319E-14
  -5.98500017E-03  -4.98992124E-14
  -5.96999982E-03  -6.13003233E-14
  -5.95499994E-03  -7.20008227E-14
  -5.94000006E-03  -8.18245753E-14
  -5.92500018E-03  -9.06056168E-14
  -5.90999983E-03  -9.81908578E-14
  -5.89499995E-03  -1.04442584E-13
  -5.88000007E-03  -1.09240857E-13
  -5.86500019E-03  -1.12485562E-13
  -5.84999984E-03  -1.14098292E-13
  -5.83499996E-03  -1.14023889E-13
  -5.82000008E-03  -1.12231683E-13
  -5.80500020E-03  -1.08716340E-13
  -5.78999985E-03  -1.03498393E-13
  -5.77499997E-03  -9.66243483E-14
  -5.76000009E-03  -8.81664533E-14
  -5.74500021E-03  -7.82220087E-14
  -5.72999986E-03  -6.69123299E-14
  -5.71499998E-03  -5.43813380E-14
  -5.70000010E-03  -4.07937335E-14
  -5.68500021E-03  -2.63329042E-14
  -5.66999987E-03  -1.11984430E-14
  -5.65499999E-03   4.39657745E-15
  -5.64000010E-03   2.02286037E-14
  -5.62500022E-03   3.60667916E-14
  -5.60999988E-03   5.16763722E-14
  -5.59500000E-03   6.68221243E-14
  -5.58000011E-03   8.12719168E-14
  -5.56500023E-03   9.48002866E-14
  -5.54999989E-03   1.07191911E-13
  -5.53500000E-03   1.18245081E-13
  -5.52000012E-03   1.27774934E-13
  -5.50499978E-03   1.35616534E-13
  -5.48999989E-03   1.41627703E-13
  -5.47500001E-03   1.45691524E-13
  -5.46000013E-03   1.47718548E-13
  -5.44499978E-03   1.47648536E-13
  -5.42999990E-03   1.45451901E-13
  -5.41500002E-03   1.41130624E-13
  -5.40000014E-03   1.34718734E-13
  -5.38499979E-03   1.26282231E-13
  -5.36999991E-03   1.15918695E-13
  -5.35500003E-03   1.03756190E-13
  -5.34000015E-03   8.99518294E-14
  -5.32499980E-03   7.46898339E-14
  -5.30999992E-03   5.81791085E-14
  -5.29500004E-03   4.06504495E-14
  -5.28000016E-03   2.23533113E-14
  -5.26499981E-03   3.55228487E-15
  -5.24999993E-03  -1.54767488E-14
  -5.23500005E-03  -3.44506867E-14
  -5.22000017E-03  -5.30834565E-14
  -5.20499982E-03  -7.10903911E-14
  -5.18999994E-03  -8.81926300E-14
  -5.17500006E-03  -1.04121545E-13
  -5.16000018E-03  -1.18623020E-13
  -5.14499983E-03  -1.31461614E-13
  -5.12999995E-03  -1.42424497E-13
  -5.11500007E-03  -1.51325106E-13
  -5.10000018E-03  -1.58006380E-13
  -5.08499984E-03  -1.62343690E-13
  -5.06999996E-03  -1.64247224E-13
  -5.05500007E-03  -1.63663923E-13
  -5.04000019E-03  -1.60578799E-13
  -5.02499985E-03  -1.55015757E-13
  -5.00999996E-03  -1.47037750E-13
  -4.99500008E-03  -1.36746381E-13
  -4.98000020E-03  -1.24280835E-13
  -4.96499985E-03  -1.09816243E-13
  -4.94999997E-03  -9.35614298E-14
  -4.93500009E-03  -7.57560654E-14
  -4.92000021E-03  -5.66673715E-14
  -4.90499986E-03  -3.65862532E-14
  -4.88999998E-03  -1.58230498E-14
  -4.87500010E-03   5.29712636E-15
  -4.86000022E-03   2.64393220E-14
  -4.84499987E-03   4.72639201E-14
  -4.82999999E-03   6.74319880E-14
  -4.81500011E-03   8.66106435E-14
  -4.80000023E-03   1.04478499E-13
  -4.78499988E-03   1.20730859E-13
  -4.77000000E-03   1.35084896E-13
  -4.75500012E-03   1.47284447E-13
  -4.73999977E-03   1.57104446E-13
  -4.72499989E-03   1.64355007E-13
  -4.71000001E-03   1.68884953E-13
  -4.69500013E-03   1.70584751E-13
  -4.67999978E-03   1.69388958E-13
  -4.66499990E-03   1.65277744E-13
  -4.65000002E-03   1.58278027E-13
  -4.63500014E-03   1.48463652E-13
  -4.61999979E-03   1.35954819E-13
  -4.60499991E-03   1.20916962E-13
  -4.59000003E-03   1.03558695E-13
  -4.57500014E-03   8.41291013E-14
  -4.55999980E-03   6.29143615E-14
  -4.54499992E-03   4.02337025E-14
  -4.53000003E-03   1.64348244E-14
  -4.51500015E-03  -8.11125442E-15
  -4.49999981E-03  -3.30157722E-14
  -4.48499992E-03  -5.78781408E-14
  -4.47000004E-03  -8.22921646E-14
  -4.45500016E-03  -1.05852413E-13
  -4.43999982E-03  -1.28160666E-13
  -4.42499993E-03  -1.48832308E-13
  -4.41000005E-03  -1.67502730E-13
  -4.39500017E-03  -1.83833255E-13
  -4.37999982E-03  -1.97516957E-13
  -4.36499994E-03  -2.08283965E-13
  -4.35000006E-03  -2.15906218E-13
  -4.33500018E-03  -2.20201692E-13
  -4.31999983E-03  -2.21037937E-13
  -4.30499995E-03  -2.18334790E-13
  -4.29000007E-03  -2.12066516E-13
  -4.27500019E-03  -2.02262876E-13
  -4.25999984E-03  -1.89009466E-13
  -4.24499996E-03  -1.72447194E-13
  -4.23000008E-03  -1.52770876E-13
  -4.21500020E-03  -1.30226898E-13
  -4.19999985E-03  -1.05110134E-13
  -4.18499997E-03  -7.77600776E-14
  -4.17000009E-03  -4.85561501E-14
  -4.15500021E-03  -1.79124006E-14
  -4.13999986E-03   1.37284169E-14
  -4.12499998E-03   4.59012643E-14
  -4.11000010E-03   7.81256773E-14
  -4.09500021E-03   1.09912947E-13
  -4.07999987E-03   1.40773461E-13
  -4.06499999E-03   1.70224213E-13
  -4.05000011E-03   1.97796234E-13
  -4.03500022E-03   2.23041922E-13
  -4.01999988E-03   2.45542166E-13
  -4.00500000E-03   2.64912929E-13
  -3.99000011E-03   2.80811778E-13
  -3.97500023E-03   2.92943214E-13
  -3.95999989E-03   3.01064024E-13
  -3.94500000E-03   3.04987453E-13
  -3.93000012E-03   3.04586678E-13
  -3.91499978E-03   2.99797595E-13
  -3.89999989E-03   2.90620257E-13
  -3.88500001E-03   2.77119934E-13
  -3.86999990E-03   2.59426676E-13
  -3.85500002E-03   2.37734311E-13
  -3.83999990E-03   2.12298224E-13
  -3.82500002E-03   1.83432249E-13
  -3.80999991E-03   1.51504785E-13
  -3.79500003E-03   1.16933901E-13
  -3.77999991E-03   8.01817380E-14
  -3.76500003E-03   4.17482584E-14
  -3.74999992E-03   2.16427104E-15
  -3.73500003E-03  -3.80159940E-14
  -3.71999992E-03  -7.82227405E-14
  -3.70500004E-03  -1.17878756E-13
  -3.68999992E-03  -1.56407751E-13
  -3.67500004E-03  -1.93242734E-13
  -3.65999993E-03  -2.27834353E-13
  -3.64500005E-03  -2.59659048E-13
  -3.62999993E-03  -2.88226826E-13
  -3.61500005E-03  -3.13088829E-13
  -3.59999994E-03  -3.33844036E-13
  -3.58500006E-03  -3.50145585E-13
  -3.56999994E-03  -3.61706352E-13
  -3.55500006E-03  -3.68303505E-13
  -3.53999995E-03  -3.69782492E-13
  -3.52500007E-03  -3.66059776E-13
  -3.50999995E-03  -3.57124757E-13
  -3.49500007E-03  -3.43040564E-13
  -3.47999996E-03  -3.23943834E-13
  -3.46500007E-03  -3.00043573E-13
  -3.44999996E-03  -2.71618584E-13
  -3.43500008E-03  -2.39014429E-13
  -3.41999996E-03  -2.02638945E-13
  -3.40500008E-03  -1.62957050E-13
  -3.38999997E-03  -1.20484718E-13
  -3.37500009E-03  -7.57820998E-14
  -3.35999997E-03  -2.94460365E-14
  -3.34500009E-03   1.78980704E-14
  -3.32999998E-03   6.56048024E-14
  -3.31500010E-03   1.13017621E-13
  -3.29999998E-03   1.59477995E-13
  -3.28500010E-03   2.04334637E-13
  -3.26999999E-03   2.46952605E-13
  -3.25500011E-03   2.86722442E-13
  -3.23999999E-03   3.23068747E-13
  -3.22500011E-03   3.55458610E-13
  -3.21000000E-03   3.83409233E-13
  -3.19500011E-03   4.06495096E-13
  -3.18000000E-03   4.24354318E-13
  -3.16499989E-03   4.36694057E-13
  -3.15000000E-03   4.43295113E-13
  -3.13499989E-03   4.44015430E-13
  -3.12000001E-03   4.38792638E-13
  -3.10499989E-03   4.27645278E-13
  -3.09000001E-03   4.10673232E-13
  -3.07499990E-03   3.88056639E-13
  -3.06000002E-03   3.60053919E-13
  -3.04499990E-03   3.26998628E-13
  -3.03000002E-03   2.89295172E-13
  -3.01499991E-03   2.47413581E-13
  -3.00000003E-03   2.01883337E-13
  -2.98499991E-03   1.53286251E-13
  -2.97000003E-03   1.02248586E-13
  -2.95499992E-03   4.94325718E-14
  -2.94000003E-03  -4.47268209E-15
  -2.92499992E-03  -5.87606474E-14
  -2.91000004E-03  -1.12717168E-13
  -2.89499993E-03  -1.65630354E-13
  -2.88000004E-03  -2.16800577E-13
  -2.86499993E-03  -2.65550114E-13
  -2.85000005E-03  -3.11232810E-13
  -2.83499993E-03  -3.53243070E-13
  -2.82000005E-03  -3.91024371E-13
  -2.80499994E-03  -4.24077196E-13
  -2.79000006E-03  -4.51965993E-13
  -2.77499994E-03  -4.74325332E-13
  -2.76000006E-03  -4.90865161E-13
  -2.74499995E-03  -5.01374766E-13
  -2.73000007E-03  -5.05725778E-13
  -2.71499995E-03  -5.03873852E-13
  -2.70000007E-03  -4.95859213E-13
  -2.68499996E-03  -4.81806164E-13
  -2.67000007E-03  -4.61920866E-13
  -2.65499996E-03  -4.36488383E-13
  -2.64000008E-03  -4.05868562E-13
  -2.62499996E-03  -3.70490585E-13
  -2.61000008E-03  -3.30846488E-13
  -2.59499997E-03  -2.87484175E-13
  -2.58000009E-03  -2.40999169E-13
  -2.56499997E-03  -1.92025947E-13
  -2.55000009E-03  -1.41228568E-13
  -2.53499998E-03  -8.92910759E-14
  -2.52000010E-03  -3.69074346E-14
  -2.50499998E-03   1.52285411E-14
  -2.49000010E-03   6.64332142E-14
  -2.47499999E-03   1.16042945E-13
  -2.46000011E-03   1.63423650E-13
  -2.44499999E-03   2.07979792E-13
  -2.43000011E-03   2.49162751E-13
  -2.41500000E-03   2.86478415E-13
  -2.40000011E-03   3.19493997E-13
  -2.38500000E-03   3.47843797E-13
  -2.36999989E-03   3.71233887E-13
  -2.35500000E-03   3.89445664E-13
  -2.33999989E-03   4.02338346E-13
  -2.32500001E-03   4.09850078E-13
  -2.30999989E-03   4.11997964E-13
  -2.29500001E-03   4.08876763E-13
  -2.27999990E-03   4.00656450E-13
  -2.26500002E-03   3.87578641E-13
  -2.24999990E-03   3.69951980E-13
  -2.23500002E-03   3.48146371E-13
  -2.21999991E-03   3.22586521E-13
  -2.20500003E-03   2.93744521E-13
  -2.18999991E-03   2.62131842E-13
  -2.17500003E-03   2.28290856E-13
  -2.15999992E-03   1.92785851E-13