  -1.49999997E-02   0.00000000    
  -1.49849998E-02   0.00000000    
  -1.49699999E-02   0.00000000    
  -1.49550000E-02   0.00000000    
  -1.49400001E-02   0.00000000    
  -1.49250003E-02   0.00000000    
  -1.49100004E-02   0.00000000    
  -1.48949996E-02   0.00000000    
  -1.48799997E-02   0.00000000    
  -1.48649998E-02   0.00000000    
  -1.48499999E-02   0.00000000    
  -1.48350000E-02   0.00000000    
  -1.48200002E-02   0.00000000    
  -1.48050003E-02   0.00000000    
  -1.47900004E-02   0.00000000    
  -1.47749996E-02   0.00000000    
  -1.47599997E-02   0.00000000    
  -1.47449998E-02   0.00000000    
  -1.47299999E-02   0.00000000    
  -1.47150001E-02   0.00000000    
  -1.47000002E-02   0.00000000    
  -1.46850003E-02   0.00000000    
  -1.46700004E-02   0.00000000    
  -1.46549996E-02   0.00000000    
  -1.46399997E-02   0.00000000    
  -1.46249998E-02   0.00000000    
  -1.46100000E-02   0.00000000    
  -1.45950001E-02   0.00000000    
  -1.45800002E-02   0.00000000    
  -1.45650003E-02   0.00000000    
  -1.45500004E-02   0.00000000    
  -1.45349996E-02   0.00000000    
  -1.45199997E-02   0.00000000    
  -1.45049999E-02   0.00000000    
  -1.44900000E-02   0.00000000    
  -1.44750001E-02   0.00000000    
  -1.44600002E-02   0.00000000    
  -1.44450003E-02   0.00000000    
  -1.44300004E-02   0.00000000    
  -1.44149996E-02   0.00000000    
  -1.43999998E-02   0.00000000    
  -1.43849999E-02   0.00000000    
  -1.43700000E-02   0.00000000    
  -1.43550001E-02   0.00000000    
  -1.43400002E-02   0.00000000    
  -1.43250003E-02   0.00000000    
  -1.43100005E-02   0.00000000    
  -1.42949997E-02   0.00000000    
  -1.42799998E-02   0.00000000    
  -1.42649999E-02   0.00000000    
  -1.42500000E-02   0.00000000    
  -1.42350001E-02   0.00000000    
  -1.42200002E-02   0.00000000    
  -1.42050004E-02   0.00000000    
  -1.41899996E-02   0.00000000    
  -1.41749997E-02   0.00000000    
  -1.41599998E-02   0.00000000    
  -1.41449999E-02   0.00000000    
  -1.41300000E-02   0.00000000    
  -1.41150001E-02   0.00000000    
  -1.41000003E-02   0.00000000    
  -1.40850004E-02   0.00000000    
  -1.40699996E-02   0.00000000    
  -1.40549997E-02   0.00000000    
  -1.40399998E-02   0.00000000    
  -1.40249999E-02   0.00000000    
  -1.40100000E-02   0.00000000    
  -1.39950002E-02   0.00000000    
  -1.39800003E-02   0.00000000    
  -1.39650004E-02   0.00000000    
  -1.39499996E-02   0.00000000    
  -1.39349997E-02   0.00000000    
  -1.39199998E-02   0.00000000    
  -1.39049999E-02   0.00000000    
  -1.38900001E-02   0.00000000    
  -1.38750002E-02   0.00000000    
  -1.38600003E-02   0.00000000    
  -1.38450004E-02   0.00000000    
  -1.38299996E-02   0.00000000    
  -1.38149997E-02   0.00000000    
  -1.37999998E-02   0.00000000    
  -1.37850000E-02   0.00000000    
  -1.37700001E-02   0.00000000    
  -1.37550002E-02   0.00000000    
  -1.37400003E-02   0.00000000    
  -1.37250004E-02   0.00000000    
  -1.37099996E-02   0.00000000    
  -1.36949997E-02   0.00000000    
  -1.36799999E-02   0.00000000    
  -1.36650000E-02   0.00000000    
  -1.36500001E-02   0.00000000    
  -1.36350002E-02   0.00000000    
  -1.36200003E-02   0.00000000    
  -1.36050005E-02   0.00000000    
  -1.35899996E-02   0.00000000    
  -1.35749998E-02   0.00000000    
  -1.35599999E-02   0.00000000    
  -1.35450000E-02   0.00000000    
  -1.35300001E-02   0.00000000    
  -1.35150002E-02   0.00000000    
  -1.35000004E-02   0.00000000    
  -1.34849995E-02   0.00000000    
  -1.34699997E-02   0.00000000    
  -1.34549998E-02   0.00000000    
  -1.34399999E-02   0.00000000    
  -1.34250000E-02   0.00000000    
  -1.34100001E-02   0.00000000    
  -1.33950002E-02   0.00000000    
  -1.33800004E-02   0.00000000    
  -1.33649996E-02   0.00000000    
  -1.33499997E-02   0.00000000    
  -1.33349998E-02   0.00000000    
  -1.33199999E-02   0.00000000    
  -1.33050000E-02   0.00000000    
  -1.32900001E-02   0.00000000    
  -1.32750003E-02   0.00000000    
  -1.32600004E-02   0.00000000    
  -1.32449996E-02   0.00000000    
  -1.32299997E-02   0.00000000    
  -1.32149998E-02   0.00000000    
  -1.31999999E-02   0.00000000    
  -1.31850000E-02   0.00000000    
  -1.31700002E-02   0.00000000    
  -1.31550003E-02   0.00000000    
  -1.31400004E-02   0.00000000    
  -1.31249996E-02   0.00000000    
  -1.31099997E-02   0.00000000    
  -1.30949998E-02   0.00000000    
  -1.30799999E-02   0.00000000    
  -1.30650001E-02   0.00000000    
  -1.30500002E-02   0.00000000    
  -1.30350003E-02   0.00000000    
  -1.30200004E-02   0.00000000    
  -1.30049996E-02   0.00000000    
  -1.29899997E-02   0.00000000    
  -1.29749998E-02   0.00000000    
  -1.29600000E-02   0.00000000    
  -1.29450001E-02   0.00000000    
  -1.29300002E-02   0.00000000    
  -1.29150003E-02   0.00000000    
  -1.29000004E-02   0.00000000    
  -1.28849996E-02   0.00000000    
  -1.28699997E-02   0.00000000    
  -1.28549999E-02   0.00000000    
  -1.28400000E-02   0.00000000    
  -1.28250001E-02   0.00000000    
  -1.28100002E-02   0.00000000    
  -1.27950003E-02   0.00000000    
  -1.27800005E-02   0.00000000    
  -1.27649996E-02   0.00000000    
  -1.27499998E-02   0.00000000    
  -1.27349999E-02   0.00000000    
  -1.27200000E-02   0.00000000    
  -1.27050001E-02   0.00000000    
  -1.26900002E-02   0.00000000    
  -1.26750004E-02   0.00000000    
  -1.26599995E-02   0.00000000    
  -1.26449997E-02   0.00000000    
  -1.26299998E-02   0.00000000    
  -1.26149999E-02   0.00000000    
  -1.26000000E-02   0.00000000    
  -1.25850001E-02   0.00000000    
  -1.25700003E-02   0.00000000    
  -1.25550004E-02   0.00000000    
  -1.25399996E-02   0.00000000    
  -1.25249997E-02   0.00000000    
  -1.25099998E-02   0.00000000    
  -1.24949999E-02   0.00000000    
  -1.24800000E-02   0.00000000    
  -1.24650002E-02   0.00000000    
  -1.24500003E-02   0.00000000    
  -1.24350004E-02   0.00000000    
  -1.24199996E-02   0.00000000    
  -1.24049997E-02   0.00000000    
  -1.23899998E-02   0.00000000    
  -1.23749999E-02   0.00000000    
  -1.23600001E-02   0.00000000    
  -1.23450002E-02   0.00000000    
  -1.23300003E-02   0.00000000    
  -1.23150004E-02   0.00000000    
  -1.22999996E-02   0.00000000    
  -1.22849997E-02   0.00000000    
  -1.22699998E-02   0.00000000    
  -1.22550000E-02   0.00000000    
  -1.22400001E-02   0.00000000    
  -1.22250002E-02   0.00000000    
  -1.22100003E-02   0.00000000    
  -1.21950004E-02   0.00000000    
  -1.21799996E-02   0.00000000    
  -1.21649997E-02   0.00000000    
  -1.21499998E-02   0.00000000    
  -1.21350000E-02   0.00000000    
  -1.21200001E-02   0.00000000    
  -1.21050002E-02   0.00000000    
  -1.20900003E-02   0.00000000    
  -1.20750004E-02   0.00000000    
  -1.20599996E-02   0.00000000    
  -1.20449997E-02   0.00000000    
  -1.20299999E-02   0.00000000    
  -1.20150000E-02   0.00000000    
  -1.20000001E-02   0.00000000    
  -1.19850002E-02   0.00000000    
  -1.19700003E-02   0.00000000    
  -1.19550005E-02   0.00000000    
  -1.19399996E-02   0.00000000    
  -1.19249998E-02   0.00000000    
  -1.19099999E-02   0.00000000    
  -1.18950000E-02   0.00000000    
  -1.18800001E-02   0.00000000    
  -1.18650002E-02   0.00000000    
  -1.18500004E-02   0.00000000    
  -1.18349995E-02   0.00000000    
  -1.18199997E-02   0.00000000    
  -1.18049998E-02   0.00000000    
  -1.17899999E-02   0.00000000    
  -1.17750000E-02   0.00000000    
  -1.17600001E-02   0.00000000    
  -1.17450003E-02   0.00000000    
  -1.17300004E-02   0.00000000    
  -1.17149996E-02   0.00000000    
  -1.16999997E-02   0.00000000    
  -1.16849998E-02   0.00000000    
  -1.16699999E-02   0.00000000    
  -1.16550000E-02   0.00000000    
  -1.16400002E-02   0.00000000    
  -1.16250003E-02   0.00000000    
  -1.16100004E-02   0.00000000    
  -1.15949996E-02   0.00000000    
  -1.15799997E-02   0.00000000    
  -1.15649998E-02   0.00000000    
  -1.15499999E-02   0.00000000    
  -1.15350001E-02   0.00000000    
  -1.15200002E-02   0.00000000    
  -1.15050003E-02   0.00000000    
  -1.14900004E-02   0.00000000    
  -1.14749996E-02   0.00000000    
  -1.14599997E-02   0.00000000    
  -1.14449998E-02   0.00000000    
  -1.14300000E-02   0.00000000    
  -1.14150001E-02   0.00000000    
  -1.14000002E-02   0.00000000    
  -1.13850003E-02   0.00000000    
  -1.13700004E-02   0.00000000    
  -1.13549996E-02   0.00000000    
  -1.13399997E-02   0.00000000    
  -1.13249999E-02   0.00000000    
  -1.13100000E-02   0.00000000    
  -1.12950001E-02   0.00000000    
  -1.12800002E-02   0.00000000    
  -1.12650003E-02   0.00000000    
  -1.12500004E-02   0.00000000    
  -1.12349996E-02   0.00000000    
  -1.12199998E-02   0.00000000    
  -1.12049999E-02   0.00000000    
  -1.11900000E-02   0.00000000    
  -1.11750001E-02   0.00000000    
  -1.11600002E-02   0.00000000    
  -1.11450003E-02   0.00000000    
  -1.11300005E-02   0.00000000    
  -1.11149997E-02   0.00000000    
  -1.10999998E-02   0.00000000    
  -1.10849999E-02   0.00000000    
  -1.10700000E-02   0.00000000    
  -1.10550001E-02   0.00000000    
  -1.10400002E-02   0.00000000    
  -1.10250004E-02   0.00000000    
  -1.10099996E-02   0.00000000    
  -1.09949997E-02   0.00000000    
  -1.09799998E-02   0.00000000    
  -1.09649999E-02   0.00000000    
  -1.09500000E-02   0.00000000    
  -1.09350001E-02   0.00000000    
  -1.09200003E-02   0.00000000    
  -1.09050004E-02   0.00000000    
  -1.08899996E-02   0.00000000    
  -1.08749997E-02   0.00000000    
  -1.08599998E-02   0.00000000    
  -1.08449999E-02   0.00000000    
  -1.08300000E-02   0.00000000    
  -1.08150002E-02   0.00000000    
  -1.08000003E-02   0.00000000    
  -1.07850004E-02   0.00000000    
  -1.07699996E-02   0.00000000    
  -1.07549997E-02   0.00000000    
  -1.07399998E-02   0.00000000    
  -1.07249999E-02   0.00000000    
  -1.07100001E-02   0.00000000    
  -1.06950002E-02   0.00000000    
  -1.06800003E-02   0.00000000    
  -1.06650004E-02   0.00000000    
  -1.06499996E-02   0.00000000    
  -1.06349997E-02   0.00000000    
  -1.06199998E-02   0.00000000    
  -1.06050000E-02   0.00000000    
  -1.05900001E-02   0.00000000    
  -1.05750002E-02   0.00000000    
  -1.05600003E-02   0.00000000    
  -1.05450004E-02   0.00000000    
  -1.05299996E-02   0.00000000    
  -1.05149997E-02   0.00000000    
  -1.04999999E-02   0.00000000    
  -1.04850000E-02   0.00000000    
  -1.04700001E-02   0.00000000    
  -1.04550002E-02   0.00000000    
  -1.04400003E-02   0.00000000    
  -1.04250005E-02   0.00000000    
  -1.04099996E-02   0.00000000    
  -1.03949998E-02   0.00000000    
  -1.03799999E-02   0.00000000    
  -1.03650000E-02   0.00000000    
  -1.03500001E-02   0.00000000    
  -1.03350002E-02   0.00000000    
  -1.03200004E-02   0.00000000    
  -1.03049995E-02   0.00000000    
  -1.02899997E-02   0.00000000    
  -1.02749998E-02   0.00000000    
  -1.02599999E-02   0.00000000    
  -1.02450000E-02   0.00000000    
  -1.02300001E-02   0.00000000    
  -1.02150002E-02   0.00000000    
  -1.02000004E-02   1.44208760E-38
  -1.01849996E-02   1.77719089E-38
  -1.01699997E-02   2.11229418E-38
  -1.01549998E-02   2.41258642E-38
  -1.01399999E-02   2.62032752E-38
  -1.01250000E-02   2.69532809E-38
  -1.01100001E-02   2.58693233E-38
  -1.00950003E-02   2.23660113E-38
  -1.00800004E-02   1.59654124E-38
  -1.00649996E-02   0.00000000    
  -1.00499997E-02  -0.00000000    
  -1.00349998E-02  -2.41046009E-38
  -1.00199999E-02  -4.48396983E-38
  -1.00050000E-02  -6.89520232E-38
  -9.99000017E-03  -9.58573461E-38
  -9.97500028E-03  -1.24356416E-37
  -9.96000040E-03  -1.52847303E-37
  -9.94499959E-03  -1.78932776E-37
  -9.92999971E-03  -1.95273968E-37
  -9.91499983E-03  -1.91278832E-37
  -9.89999995E-03  -2.06014954E-37
  -9.88500006E-03  -2.51874498E-37
  -9.87000018E-03  -2.63838022E-37
  -9.85500030E-03  -2.53589149E-37
  -9.84000042E-03  -2.36057000E-37
  -9.82499961E-03  -1.81750597E-37
  -9.80999973E-03  -9.33263656E-38
  -9.79499985E-03   2.80387491E-38
  -9.77999996E-03   1.92147301E-37
  -9.76500008E-03   4.44503218E-37
  -9.75000020E-03   7.69918577E-37
  -9.73500032E-03   1.17452470E-36
  -9.72000044E-03   1.68385422E-36
  -9.70499963E-03   2.28053204E-36
  -9.68999974E-03   2.90053769E-36
  -9.67499986E-03   3.50038814E-36
  -9.65999998E-03   3.98735160E-36
  -9.64500010E-03   4.31161628E-36
  -9.63000022E-03   4.61399469E-36
  -9.61500034E-03   4.83446661E-36
  -9.60000046E-03   4.80629428E-36
  -9.58499964E-03   4.40208106E-36
  -9.56999976E-03   3.45108360E-36
  -9.55499988E-03   1.76111496E-36
  -9.54000000E-03  -6.46919772E-37
  -9.52500012E-03  -3.69376392E-36
  -9.51000024E-03  -7.63018305E-36
  -9.49500035E-03  -1.34728068E-35
  -9.47999954E-03  -2.03268687E-35
  -9.46499966E-03  -2.72534548E-35
  -9.44999978E-03  -3.49335455E-35
  -9.43499990E-03  -4.31534910E-35
  -9.42000002E-03  -5.15697866E-35
  -9.40500014E-03  -5.96747513E-35
  -9.39000025E-03  -6.68835737E-35
  -9.37500037E-03  -7.28889666E-35
  -9.35999956E-03  -7.78915273E-35
  -9.34499968E-03  -8.18085351E-35
  -9.32999980E-03  -8.38952901E-35
  -9.31499992E-03  -8.34685880E-35
  -9.30000003E-03  -7.98372230E-35
  -9.28500015E-03  -7.22884945E-35
  -9.27000027E-03  -6.04625793E-35
  -9.25500039E-03  -4.42016813E-35
  -9.23999958E-03  -2.37561166E-35
  -9.22499970E-03   4.61630897E-37
  -9.20999981E-03   2.82319075E-35
  -9.19499993E-03   5.90400877E-35
  -9.18000005E-03   9.26527517E-35
  -9.16500017E-03   1.28151717E-34
  -9.15000029E-03   1.64162791E-34
  -9.13500041E-03   1.98732473E-34
  -9.11999959E-03   2.30787240E-34
  -9.10499971E-03   2.58753329E-34
  -9.08999983E-03   2.80226603E-34
  -9.07499995E-03   2.94459177E-34
  -9.06000007E-03   3.00670448E-34
  -9.04500019E-03   2.96059732E-34
  -9.03000031E-03   2.78815390E-34
  -9.01500043E-03   2.48042372E-34
  -8.99999961E-03   2.01310226E-34
  -8.98499973E-03   1.36960107E-34
  -8.96999985E-03   5.37610447E-35
  -8.95499997E-03  -4.85116359E-35
  -8.94000009E-03  -1.67693051E-34
  -8.92500021E-03  -2.98477600E-34
  -8.91000032E-03  -4.37808463E-34
  -8.89500044E-03  -5.84155122E-34
  -8.87999963E-03  -7.32901718E-34
  -8.86499975E-03  -8.67911377E-34
  -8.84999987E-03  -9.66795431E-34
  -8.83499999E-03  -1.00788704E-33
  -8.82000010E-03  -9.68935290E-34
  -8.80500022E-03  -8.33095254E-34
  -8.79000034E-03  -5.86744010E-34
  -8.77500046E-03  -2.18928040E-34
  -8.75999965E-03   2.75118461E-34
  -8.74499977E-03   8.93167516E-34
  -8.72999988E-03   1.62683808E-33
  -8.71500000E-03   2.44953664E-33
  -8.70000012E-03   3.33536347E-33
  -8.68500024E-03   4.26084817E-33
  -8.67000036E-03   5.18677589E-33
  -8.65499955E-03   6.06795584E-33
  -8.63999967E-03   6.85209028E-33
  -8.62499978E-03   7.47889987E-33
  -8.60999990E-03   7.88514117E-33
  -8.59500002E-03   8.01410318E-33
  -8.58000014E-03   7.80868628E-33
  -8.56500026E-03   7.21132650E-33
  -8.55000038E-03   6.17342303E-33
  -8.53499956E-03   4.66109187E-33
  -8.51999968E-03   2.65276620E-33
  -8.50499980E-03   1.62336952E-34
  -8.48999992E-03  -2.75979551E-33
  -8.47500004E-03  -6.05924359E-33
  -8.46000016E-03  -9.64403630E-33
  -8.44500028E-03  -1.33866149E-32
  -8.43000039E-03  -1.71420549E-32
  -8.41499958E-03  -2.07374542E-32
  -8.39999970E-03  -2.39814807E-32
  -8.38499982E-03  -2.66700478E-32
  -8.36999994E-03  -2.85905911E-32
  -8.35500006E-03  -2.95343778E-32
  -8.34000017E-03  -2.93111074E-32
  -8.32500029E-03  -2.77571303E-32
  -8.31000041E-03  -2.47446792E-32
  -8.29499960E-03  -2.01813043E-32
  -8.27999972E-03  -1.40369175E-32
  -8.26499984E-03  -6.36152049E-33
  -8.24999996E-03   2.71382597E-33
  -8.23500007E-03   1.29751684E-32
  -8.22000019E-03   2.41244810E-32
  -8.20500031E-03   3.57721739E-32
  -8.19000043E-03   4.74436220E-32
  -8.17499962E-03   5.85939853E-32
  -8.15999974E-03   6.86223862E-32
  -8.14499985E-03   7.68958681E-32
  -8.12999997E-03   8.27803340E-32
  -8.11500009E-03   8.56632751E-32
  -8.10000021E-03   8.49891173E-32
  -8.08500033E-03   8.02871046E-32
  -8.07000045E-03   7.12058936E-32
  -8.05499963E-03   5.75511690E-32
  -8.03999975E-03   3.93240417E-32
  -8.02499987E-03   1.67480277E-32
  -8.00999999E-03  -9.70558225E-33
  -7.99500011E-03  -3.93031209E-32
  -7.98000023E-03  -7.10574756E-32
  -7.96500035E-03  -1.03734485E-31
  -7.95000046E-03  -1.35878907E-31
  -7.93499965E-03  -1.65853472E-31
  -7.91999977E-03  -1.91889731E-31
  -7.90499989E-03  -2.12154702E-31
  -7.89000001E-03  -2.24848677E-31
  -7.87500013E-03  -2.28293769E-31
  -7.86000025E-03  -2.21018728E-31
  -7.84500036E-03  -2.01873898E-31
  -7.82999955E-03  -1.70137314E-31
  -7.81499967E-03  -1.25606156E-31
  -7.79999979E-03  -6.86793624E-32
  -7.78499991E-03  -4.30162653E-34
  -7.77000003E-03   7.73453184E-32
  -7.75500014E-03   1.62115412E-31
  -7.73999980E-03   2.50635802E-31
  -7.72499992E-03   3.39005588E-31
  -7.71000003E-03   4.22766026E-31
  -7.69500015E-03   4.97042552E-31
  -7.67999981E-03   5.56720284E-31
  -7.66499992E-03   5.96669554E-31
  -7.65000004E-03   6.11998611E-31
  -7.63500016E-03   5.98330527E-31
  -7.61999981E-03   5.52095513E-31
  -7.60499993E-03   4.70823809E-31
  -7.59000005E-03   3.53439954E-31
  -7.57500017E-03   2.00519941E-31
  -7.55999982E-03   1.45047701E-32
  -7.54499994E-03  -2.00155702E-31
  -7.53000006E-03  -4.36932849E-31
  -7.51500018E-03  -6.87229497E-31
  -7.49999983E-03  -9.40501463E-31
  -7.48499995E-03  -1.18449384E-30
  -7.47000007E-03  -1.40559398E-30
  -7.45500019E-03  -1.58929714E-30
  -7.43999984E-03  -1.72079245E-30
  -7.42499996E-03  -1.78565717E-30
  -7.41000008E-03  -1.77061667E-30
  -7.39500020E-03  -1.66435386E-30
  -7.37999985E-03  -1.45834989E-30
  -7.36499997E-03  -1.14771131E-30
  -7.35000009E-03  -7.31921699E-31
  -7.33500021E-03  -2.15497102E-31
  -7.31999986E-03   3.91493010E-31
  -7.30499998E-03   1.07310616E-30
  -7.29000010E-03   1.80744613E-30
  -7.27500021E-03   2.56685517E-30
  -7.25999987E-03   3.31842206E-30
  -7.24499999E-03   4.02480313E-30
  -7.23000010E-03   4.64536936E-30
  -7.21500022E-03   5.13767467E-30
  -7.19999988E-03   5.45921130E-30
  -7.18499999E-03   5.56941625E-30
  -7.17000011E-03   5.43186009E-30
  -7.15500023E-03   5.01655210E-30
  -7.13999989E-03   4.30225817E-30
  -7.12500000E-03   3.27870991E-30
  -7.11000012E-03   1.94861492E-30
  -7.09499978E-03   3.29342907E-31
  -7.07999989E-03  -1.54585472E-30
  -7.06500001E-03  -3.62720167E-30
  -7.05000013E-03  -5.84843046E-30
  -7.03499978E-03  -8.12757934E-30
  -7.01999990E-03  -1.03686313E-29
  -7.00500002E-03  -1.24640160E-29
  -6.99000014E-03  -1.42979835E-29
  -6.97499979E-03  -1.57507907E-29
  -6.95999991E-03  -1.67036310E-29
  -6.94500003E-03  -1.70441821E-29
  -6.93000015E-03  -1.66725408E-29
  -6.91499980E-03  -1.55073938E-29
  -6.89999992E-03  -1.34921383E-29
  -6.88500004E-03  -1.06006750E-29
  -6.87000016E-03  -6.84255374E-30
  -6.85499981E-03  -2.26716806E-30
  -6.83999993E-03   3.03330675E-30
  -6.82500005E-03   8.92254981E-30
  -6.81000017E-03   1.52205296E-29
  -6.79499982E-03   2.17059482E-29
  -6.77999994E-03   2.81208341E-29
  -6.76500006E-03   3.41773692E-29
  -6.75000018E-03   3.95668464E-29
  -6.73499983E-03   4.39707110E-29
  -6.71999995E-03   4.70733059E-29
  -6.70500007E-03   4.85761361E-29
  -6.69000018E-03   4.82130080E-29
  -6.67499984E-03   4.57656085E-29
  -6.65999996E-03   4.10788218E-29
  -6.64500007E-03   3.40750692E-29
  -6.63000019E-03   2.47669626E-29
  -6.61499985E-03   1.32674470E-29
  -6.59999996E-03  -2.03232582E-31
  -6.58500008E-03  -1.53144698E-29
  -6.57000020E-03  -3.16266887E-29
  -6.55499985E-03  -4.85976644E-29
  -6.53999997E-03  -6.55940202E-29
  -6.52500009E-03  -8.19080010E-29
  -6.51000021E-03  -9.67793700E-29
  -6.49499986E-03  -1.09422047E-28
  -6.47999998E-03  -1.19054754E-28
  -6.46500010E-03  -1.24935015E-28
  -6.45000022E-03  -1.26395015E-28
  -6.43499987E-03  -1.22878339E-28
  -6.41999999E-03  -1.13975740E-28
  -6.40500011E-03  -9.94585552E-29
  -6.39000023E-03  -7.93079294E-29
  -6.37499988E-03  -5.37380015E-29
  -6.36000000E-03  -2.32117395E-29
  -6.34500012E-03   1.15523838E-29
  -6.32999977E-03   4.95838940E-29
  -6.31499989E-03   8.96750357E-29
  -6.30000001E-03   1.30407088E-28
  -6.28500013E-03   1.70188435E-28
  -6.26999978E-03   2.07303994E-28
  -6.25499990E-03   2.39974723E-28
  -6.24000002E-03   2.66426047E-28
  -6.22500014E-03   2.84962858E-28
  -6.20999979E-03   2.94048408E-28
  -6.19499991E-03   2.92384477E-28
  -6.18000003E-03   2.78988912E-28
  -6.16500014E-03   2.53267636E-28
  -6.14999980E-03   2.15076734E-28
  -6.13499992E-03   1.64771179E-28
  -6.12000003E-03   1.03237440E-28
  -6.10500015E-03   3.19059786E-29
  -6.08999981E-03  -4.72578581E-29
  -6.07499992E-03  -1.31786824E-28
  -6.06000004E-03  -2.18769151E-28
  -6.04500016E-03  -3.04930201E-28
  -6.02999981E-03  -3.86736916E-28
  -6.01499993E-03  -4.60522976E-28
  -6.00000005E-03  -5.22630653E-28
  -5.98500017E-03  -5.69565133E-28
  -5.96999982E-03  -5.98155611E-28
  -5.95499994E-03  -6.05716330E-28
  -5.94000006E-03  -5.90201280E-28
  -5.92500018E-03  -5.50344882E-28
  -5.90999983E-03  -4.85780680E-28
  -5.89499995E-03  -3.97132580E-28
  -5.88000007E-03  -2.86070075E-28
  -5.86500019E-03  -1.55323819E-28
  -5.84999984E-03  -8.65613727E-30
  -5.83499996E-03   1.49215106E-28
  -5.82000008E-03   3.12740665E-28
  -5.80500020E-03   4.75710281E-28
  -5.78999985E-03   6.31465869E-28
  -5.77499997E-03   7.73151143E-28
  -5.76000009E-03   8.93990776E-28
  -5.74500021E-03   9.87587505E-28
  -5.72999986E-03   1.04822762E-27
  -5.71499998E-03   1.07117884E-27
  -5.70000010E-03   1.05297013E-27
  -5.68500021E-03   9.91636965E-28
  -5.66999987E-03   8.86918665E-28
  -5.65499999E-03   7.40395552E-28
  -5.64000010E-03   5.55554330E-28
  -5.62500022E-03   3.37773518E-28
  -5.60999988E-03   9.42220961E-29
  -5.59500000E-03  -1.66330183E-28
  -5.58000011E-03  -4.33789431E-28
  -5.56500023E-03  -6.97095880E-28
  -5.54999989E-03  -9.44653423E-28
  -5.53500000E-03  -1.16481687E-27
  -5.52000012E-03  -1.34641839E-27
  -5.50499978E-03  -1.47931228E-27
  -5.48999989E-03  -1.55491408E-27
  -5.47500001E-03  -1.56670857E-27
  -5.46000013E-03  -1.51069964E-27
  -5.44499978E-03  -1.38577737E-27
  -5.42999990E-03  -1.19397565E-27
  -5.41500002E-03  -9.40603288E-28
  -5.40000014E-03  -6.34228712E-28
  -5.38499979E-03  -2.86507213E-28
  -5.36999991E-03   8.81527024E-29
  -5.35500003E-03   4.73081724E-28
  -5.34000015E-03   8.49991174E-28
  -5.32499980E-03   1.19974458E-27
  -5.30999992E-03   1.50323291E-27
  -5.29500004E-03   1.74232045E-27
  -5.28000016E-03   1.90082083E-27
  -5.26499981E-03   1.96545985E-27
  -5.24999993E-03   1.92677292E-27
  -5.23500005E-03   1.77989361E-27
  -5.22000017E-03   1.52517994E-27
  -5.20499982E-03   1.16863580E-27
  -5.18999994E-03   7.22088433E-28
  -5.17500006E-03   2.03090974E-28
  -5.16000018E-03  -3.65471014E-28
  -5.14499983E-03  -9.56074091E-28
  -5.12999995E-03  -1.53754691E-27
  -5.11500007E-03  -2.07633564E-27
  -5.10000018E-03  -2.53800608E-27
  -5.08499984E-03  -2.88892901E-27
  -5.06999996E-03  -3.09808769E-27
  -5.05500007E-03  -3.13892415E-27
  -5.04000019E-03  -2.99114003E-27
  -5.02499985E-03  -2.64235855E-27
  -5.00999996E-03  -2.08955291E-27
  -4.99500008E-03  -1.34014737E-27
  -4.98000020E-03  -4.12705939E-28
  -4.96499985E-03   6.62865750E-28
  -4.94999997E-03   1.84566007E-27
  -4.93500009E-03   3.08468842E-27
  -4.92000021E-03   4.32038896E-27
  -4.90499986E-03   5.48671364E-27
  -4.88999998E-03   6.51374005E-27
  -4.87500010E-03   7.33074264E-27
  -4.86000022E-03   7.86960783E-27
  -4.84499987E-03   8.06847242E-27
  -4.82999999E-03   7.87542645E-27
  -4.81500011E-03   7.25210924E-27
  -4.80000023E-03   6.17701508E-27
  -4.78499988E-03   4.64832244E-27
  -4.77000000E-03   2.68606946E-27
  -4.75500012E-03   3.33500144E-28
  -4.73999977E-03  -2.34255635E-27
  -4.72499989E-03  -5.25238960E-27
  -4.71000001E-03  -8.28525895E-27
  -4.69500013E-03  -1.13124295E-26
  -4.67999978E-03  -1.41913411E-26
  -4.66499990E-03  -1.67708562E-26
  -4.65000002E-03  -1.88974018E-26
  -4.63500014E-03  -2.04218493E-26
  -4.61999979E-03  -2.12068491E-26
  -4.60499991E-03  -2.11343325E-26
  -4.59000003E-03  -2.01128593E-26
  -4.57500014E-03  -1.80844421E-26
  -4.55999980E-03  -1.50304996E-26
  -4.54499992E-03  -1.09765673E-26
  -4.53000003E-03  -5.99546729E-27
  -4.51500015E-03  -2.08615624E-28
  -4.49999981E-03   6.21473904E-27
  -4.48499992E-03   1.30605044E-26
  -4.47000004E-03   2.00750063E-26
  -4.45500016E-03   2.69725287E-26
  -4.43999982E-03   3.34449352E-26
  -4.42499993E-03   3.91731840E-26
  -4.41000005E-03   4.38403285E-26
  -4.39500017E-03   4.71455725E-26
  -4.37999982E-03   4.88188790E-26
  -4.36499994E-03   4.86354442E-26
  -4.35000006E-03   4.64294563E-26
  -4.33500018E-03   4.21064369E-26
  -4.31999983E-03   3.56534961E-26
  -4.30499995E-03   2.71469224E-26
  -4.29000007E-03   1.67564595E-26
  -4.27500019E-03   4.74593281E-27
  -4.25999984E-03  -8.53018793E-27
  -4.24499996E-03  -2.26344085E-26
  -4.23000008E-03  -3.70580445E-26
  -4.21500020E-03  -5.12370273E-26
  -4.19999985E-03  -6.45713712E-26
  -4.18499997E-03  -7.64476475E-26
  -4.17000009E-03  -8.62638382E-26
  -4.15500021E-03  -9.34554763E-26
  -4.13999986E-03  -9.75222885E-26
  -4.12499998E-03  -9.80540115E-26
  -4.11000010E-03  -9.47542372E-26
  -4.09500021E-03  -8.74612736E-26
  -4.07999987E-03  -7.61647299E-26
  -4.06499999E-03  -6.10169427E-26
  -4.05000011E-03  -4.23382788E-26
  -4.03500022E-03  -2.06157304E-26
  -4.01999988E-03   3.50554880E-27
  -4.00500000E-03   2.92379585E-26
  -3.99000011E-03   5.56741973E-26
  -3.97500023E-03   8.18165362E-26
  -3.95999989E-03   1.06611753E-25
  -3.94500000E-03   1.28990665E-25
  -3.93000012E-03   1.47910890E-25
  -3.91499978E-03   1.62401057E-25
  -3.89999989E-03   1.71604993E-25
  -3.88500001E-03   1.74823644E-25
  -3.86999990E-03   1.71553162E-25
  -3.85500002E-03   1.61517076E-25
  -3.83999990E-03   1.44691117E-25
  -3.82500002E-03   1.21318758E-25
  -3.80999991E-03   9.19169572E-26
  -3.79500003E-03   5.72707655E-26
  -3.77999991E-03   1.84166265E-26
  -3.76500003E-03  -2.33854718E-26
  -3.74999992E-03  -6.66905105E-26
  -3.73500003E-03  -1.09916588E-25
  -3.71999992E-03  -1.51401094E-25
  -3.70500004E-03  -1.89463016E-25
  -3.68999992E-03  -2.22469104E-25
  -3.67500004E-03  -2.48901294E-25
  -3.65999993E-03  -2.67422639E-25
  -3.64500005E-03  -2.76938890E-25
  -3.62999993E-03  -2.76653273E-25
  -3.61500005E-03  -2.66111404E-25
  -3.59999994E-03  -2.45234447E-25
  -3.58500006E-03  -2.14338414E-25
  -3.56999994E-03  -1.74138493E-25
  -3.55500006E-03  -1.25737255E-25
  -3.53999995E-03  -7.05969065E-26
  -3.52500007E-03  -1.04960116E-26
  -3.50999995E-03   5.25281338E-26
  -3.49500007E-03   1.16249588E-25
  -3.47999996E-03   1.78333927E-25
  -3.46500007E-03   2.36425336E-25
  -3.44999996E-03   2.88237646E-25
  -3.43500008E-03   3.31645161E-25
  -3.41999996E-03   3.64770195E-25
  -3.40500008E-03   3.86062956E-25
  -3.38999997E-03   3.94370795E-25
  -3.37500009E-03   3.88993623E-25
  -3.35999997E-03   3.69722442E-25
  -3.34500009E-03   3.36859556E-25
  -3.32999998E-03   2.91219023E-25
  -3.31500010E-03   2.34106553E-25
  -3.29999998E-03   1.67279878E-25
  -3.28500010E-03   9.28903499E-26
  -3.26999999E-03   1.34080639E-26
  -3.25500011E-03  -6.84667048E-26
  -3.23999999E-03  -1.49902468E-25
  -3.22500011E-03  -2.28041840E-25
  -3.21000000E-03  -3.00108745E-25
  -3.19500011E-03  -3.63513810E-25
  -3.18000000E-03  -4.15952797E-25
  -3.16499989E-03  -4.55494400E-25
  -3.15000000E-03  -4.80653788E-25
  -3.13499989E-03  -4.90448728E-25
  -3.12000001E-03  -4.84435784E-25
  -3.10499989E-03  -4.62725445E-25
  -3.09000001E-03  -4.25975373E-25
  -3.07499990E-03  -3.75362452E-25
  -3.06000002E-03  -3.12534340E-25
  -3.04499990E-03  -2.39543629E-25
  -3.03000002E-03  -1.58766861E-25
  -3.01499991E-03  -7.28124963E-26
  -3.00000003E-03   1.55784436E-26
  -2.98499991E-03   1.03634321E-25
  -2.97000003E-03   1.88653287E-25
  -2.95499992E-03   2.68097633E-25
  -2.94000003E-03   3.39678354E-25
  -2.92499992E-03   4.01426342E-25
  -2.91000004E-03   4.51747607E-25
  -2.89499993E-03   4.89460828E-25
  -2.88000004E-03   5.13815775E-25
  -2.86499993E-03   5.24493500E-25
  -2.85000005E-03   5.21588125E-25
  -2.83499993E-03   5.05573460E-25
  -2.82000005E-03   4.77255424E-25
  -2.80499994E-03   4.37714856E-25
  -2.79000006E-03   3.88244205E-25
  -2.77499994E-03   3.30280900E-25
  -2.76000006E-03   2.65342709E-25
  -2.74499995E-03   1.94968218E-25
  -2.73000007E-03   1.20665323E-25
  -2.71499995E-03   4.38710787E-26
  -2.70000007E-03  -3.40760393E-26
  -2.68499996E-03  -1.11949753E-25
  -2.67000007E-03  -1.88635970E-25
  -2.65499996E-03  -2.63120167E-25
  -2.64000008E-03  -3.34463835E-25
  -2.62499996E-03  -4.01773145E-25
  -2.61000008E-03  -4.64162749E-25
  -2.59499997E-03  -5.20719244E-25
  -2.58000009E-03  -5.70467968E-25
  -2.56499997E-03  -6.12347361E-25
  -2.55000009E-03  -6.45194740E-25
  -2.53499998E-03  -6.67746795E-25
  -2.52000010E-03  -6.78656938E-25
  -2.50499998E-03  -6.76531254E-25
  -2.49000010E-03  -6.59983121E-25
  -2.47499999E-03  -6.27705152E-25
  -2.46000011E-03  -5.78556209E-25
  -2.44499999E-03  -5.11660409E-25
  -2.43000011E-03  -4.26512440E-25
  -2.41500000E-03  -3.23083629E-25
  -2.40000011E-03  -2.01922914E-25
  -2.38500000E-03  -6.42447582E-26
  -2.36999989E-03   8.80016988E-26
  -2.35500000E-03   2.52089747E-25
  -2.33999989E-03   4.24503950E-25
  -2.32500001E-03   6.00965134E-25
  -2.30999989E-03   7.76495165E-25
  -2.29500001E-03   9.45522863E-25
  -2.27999990E-03   1.10203070E-24
  -2.26500002E-03   1.23973948E-24
  -2.24999990E-03   1.35232650E-24
  -2.23500002E-03   1.43366989E-24
  -2.21999991E-03   1.47811254E-24
  -2.20500003E-03   1.48073235E-24
  -2.18999991E-03   1.43760976E-24
  -2.17500003E-03   1.34607852E-24
  -2.15999992E-03   1.20494993E-24