  -1.49999997E-02   0.00000000    
  -1.49849998E-02   0.00000000    
  -1.49699999E-02   0.00000000    
  -1.49550000E-02   0.00000000    
  -1.49400001E-02   0.00000000    
  -1.49250003E-02   0.00000000    
  -1.49100004E-02   0.00000000    
  -1.48949996E-02   0.00000000    
  -1.48799997E-02   0.00000000    
  -1.48649998E-02   0.00000000    
  -1.48499999E-02   0.00000000    
  -1.48350000E-02   0.00000000    
  -1.48200002E-02   0.00000000    
  -1.48050003E-02   0.00000000    
  -1.47900004E-02   0.00000000    
  -1.47749996E-02   0.00000000    
  -1.47599997E-02   0.00000000    
  -1.47449998E-02   0.00000000    
  -1.47299999E-02   0.00000000    
  -1.47150001E-02   0.00000000    
  -1.47000002E-02   0.00000000    
  -1.46850003E-02   0.00000000    
  -1.46700004E-02   0.00000000    
  -1.46549996E-02   0.00000000    
  -1.46399997E-02   0.00000000    
  -1.46249998E-02   0.00000000    
  -1.46100000E-02   0.00000000    
  -1.45950001E-02   0.00000000    
  -1.45800002E-02   0.00000000    
  -1.45650003E-02   0.00000000    
  -1.45500004E-02   0.00000000    
  -1.45349996E-02   0.00000000    
  -1.45199997E-02   0.00000000    
  -1.45049999E-02   0.00000000    
  -1.44900000E-02   0.00000000    
  -1.44750001E-02   0.00000000    
  -1.44600002E-02   0.00000000    
  -1.44450003E-02   0.00000000    
  -1.44300004E-02   0.00000000    
  -1.44149996E-02   0.00000000    
  -1.43999998E-02   0.00000000    
  -1.43849999E-02   0.00000000    
  -1.43700000E-02   0.00000000    
  -1.43550001E-02   0.00000000    
  -1.43400002E-02   0.00000000    
  -1.43250003E-02   0.00000000    
  -1.43100005E-02   0.00000000    
  -1.42949997E-02   0.00000000    
  -1.42799998E-02   0.00000000    
  -1.42649999E-02   0.00000000    
  -1.42500000E-02   0.00000000    
  -1.42350001E-02   0.00000000    
  -1.42200002E-02   0.00000000    
  -1.42050004E-02   0.00000000    
  -1.41899996E-02   0.00000000    
  -1.41749997E-02   0.00000000    
  -1.41599998E-02   0.00000000    
  -1.41449999E-02   0.00000000    
  -1.41300000E-02   0.00000000    
  -1.41150001E-02   0.00000000    
  -1.41000003E-02   0.00000000    
  -1.40850004E-02   0.00000000    
  -1.40699996E-02   0.00000000    
  -1.40549997E-02   0.00000000    
  -1.40399998E-02   0.00000000    
  -1.40249999E-02   0.00000000    
  -1.40100000E-02   0.00000000    
  -1.39950002E-02   0.00000000    
  -1.39800003E-02   0.00000000    
  -1.39650004E-02   0.00000000    
  -1.39499996E-02   0.00000000    
  -1.39349997E-02   0.00000000    
  -1.39199998E-02   0.00000000    
  -1.39049999E-02   0.00000000    
  -1.38900001E-02   0.00000000    
  -1.38750002E-02   0.00000000    
  -1.38600003E-02   0.00000000    
  -1.38450004E-02   0.00000000    
  -1.38299996E-02   0.00000000    
  -1.38149997E-02   0.00000000    
  -1.37999998E-02   0.00000000    
  -1.37850000E-02   0.00000000    
  -1.37700001E-02   0.00000000    
  -1.37550002E-02   0.00000000    
  -1.37400003E-02   0.00000000    
  -1.37250004E-02   0.00000000    
  -1.37099996E-02   0.00000000    
  -1.36949997E-02   0.00000000    
  -1.36799999E-02   0.00000000    
  -1.36650000E-02   0.00000000    
  -1.36500001E-02   0.00000000    
  -1.36350002E-02   0.00000000    
  -1.36200003E-02   0.00000000    
  -1.36050005E-02   0.00000000    
  -1.35899996E-02   0.00000000    
  -1.35749998E-02   0.00000000    
  -1.35599999E-02   0.00000000    
  -1.35450000E-02   0.00000000    
  -1.35300001E-02   0.00000000    
  -1.35150002E-02   0.00000000    
  -1.35000004E-02   0.00000000    
  -1.34849995E-02   0.00000000    
  -1.34699997E-02   0.00000000    
  -1.34549998E-02   0.00000000    
  -1.34399999E-02   0.00000000    
  -1.34250000E-02   0.00000000    
  -1.34100001E-02   0.00000000    
  -1.33950002E-02   0.00000000    
  -1.33800004E-02   0.00000000    
  -1.33649996E-02   0.00000000    
  -1.33499997E-02   0.00000000    
  -1.33349998E-02   0.00000000    
  -1.33199999E-02   0.00000000    
  -1.33050000E-02   0.00000000    
  -1.32900001E-02   0.00000000    
  -1.32750003E-02   0.00000000    
  -1.32600004E-02   0.00000000    
  -1.32449996E-02   0.00000000    
  -1.32299997E-02   0.00000000    
  -1.32149998E-02   0.00000000    
  -1.31999999E-02   0.00000000    
  -1.31850000E-02   0.00000000    
  -1.31700002E-02   0.00000000    
  -1.31550003E-02   0.00000000    
  -1.31400004E-02   0.00000000    
  -1.31249996E-02   0.00000000    
  -1.31099997E-02   0.00000000    
  -1.30949998E-02   0.00000000    
  -1.30799999E-02   0.00000000    
  -1.30650001E-02   0.00000000    
  -1.30500002E-02   0.00000000    
  -1.30350003E-02   0.00000000    
  -1.30200004E-02   0.00000000    
  -1.30049996E-02   0.00000000    
  -1.29899997E-02   0.00000000    
  -1.29749998E-02   0.00000000    
  -1.29600000E-02   0.00000000    
  -1.29450001E-02   0.00000000    
  -1.29300002E-02   0.00000000    
  -1.29150003E-02   0.00000000    
  -1.29000004E-02   0.00000000    
  -1.28849996E-02   0.00000000    
  -1.28699997E-02   0.00000000    
  -1.28549999E-02   0.00000000    
  -1.28400000E-02   0.00000000    
  -1.28250001E-02   0.00000000    
  -1.28100002E-02   0.00000000    
  -1.27950003E-02   0.00000000    
  -1.27800005E-02   0.00000000    
  -1.27649996E-02   0.00000000    
  -1.27499998E-02   0.00000000    
  -1.27349999E-02   0.00000000    
  -1.27200000E-02   0.00000000    
  -1.27050001E-02   0.00000000    
  -1.26900002E-02   0.00000000    
  -1.26750004E-02   0.00000000    
  -1.26599995E-02   0.00000000    
  -1.26449997E-02   0.00000000    
  -1.26299998E-02   0.00000000    
  -1.26149999E-02   0.00000000    
  -1.26000000E-02   0.00000000    
  -1.25850001E-02   0.00000000    
  -1.25700003E-02   0.00000000    
  -1.25550004E-02   0.00000000    
  -1.25399996E-02   0.00000000    
  -1.25249997E-02   0.00000000    
  -1.25099998E-02   0.00000000    
  -1.24949999E-02   0.00000000    
  -1.24800000E-02   0.00000000    
  -1.24650002E-02   0.00000000    
  -1.24500003E-02   0.00000000    
  -1.24350004E-02   0.00000000    
  -1.24199996E-02   0.00000000    
  -1.24049997E-02   0.00000000    
  -1.23899998E-02   0.00000000    
  -1.23749999E-02   0.00000000    
  -1.23600001E-02   0.00000000    
  -1.23450002E-02   0.00000000    
  -1.23300003E-02   0.00000000    
  -1.23150004E-02   0.00000000    
  -1.22999996E-02   0.00000000    
  -1.22849997E-02   0.00000000    
  -1.22699998E-02   0.00000000    
  -1.22550000E-02   0.00000000    
  -1.22400001E-02   0.00000000    
  -1.22250002E-02   0.00000000    
  -1.22100003E-02   0.00000000    
  -1.21950004E-02   0.00000000    
  -1.21799996E-02   0.00000000    
  -1.21649997E-02   0.00000000    
  -1.21499998E-02   0.00000000    
  -1.21350000E-02   0.00000000    
  -1.21200001E-02   0.00000000    
  -1.21050002E-02   0.00000000    
  -1.20900003E-02   0.00000000    
  -1.20750004E-02   0.00000000    
  -1.20599996E-02   0.00000000    
  -1.20449997E-02   0.00000000    
  -1.20299999E-02   0.00000000    
  -1.20150000E-02   0.00000000    
  -1.20000001E-02   0.00000000    
  -1.19850002E-02   0.00000000    
  -1.19700003E-02   0.00000000    
  -1.19550005E-02   0.00000000    
  -1.19399996E-02   0.00000000    
  -1.19249998E-02   0.00000000    
  -1.19099999E-02   0.00000000    
  -1.18950000E-02   0.00000000    
  -1.18800001E-02   0.00000000    
  -1.18650002E-02   0.00000000    
  -1.18500004E-02   0.00000000    
  -1.18349995E-02   0.00000000    
  -1.18199997E-02   0.00000000    
  -1.18049998E-02   0.00000000    
  -1.17899999E-02   0.00000000    
  -1.17750000E-02   0.00000000    
  -1.17600001E-02   0.00000000    
  -1.17450003E-02   0.00000000    
  -1.17300004E-02   0.00000000    
  -1.17149996E-02   0.00000000    
  -1.16999997E-02   0.00000000    
  -1.16849998E-02   0.00000000    
  -1.16699999E-02   0.00000000    
  -1.16550000E-02   0.00000000    
  -1.16400002E-02   0.00000000    
  -1.16250003E-02   0.00000000    
  -1.16100004E-02   0.00000000    
  -1.15949996E-02   0.00000000    
  -1.15799997E-02   0.00000000    
  -1.15649998E-02   0.00000000    
  -1.15499999E-02   0.00000000    
  -1.15350001E-02   0.00000000    
  -1.15200002E-02   0.00000000    
  -1.15050003E-02   0.00000000    
  -1.14900004E-02   0.00000000    
  -1.14749996E-02   0.00000000    
  -1.14599997E-02   0.00000000    
  -1.14449998E-02   0.00000000    
  -1.14300000E-02   0.00000000    
  -1.14150001E-02   0.00000000    
  -1.14000002E-02   0.00000000    
  -1.13850003E-02   0.00000000    
  -1.13700004E-02   0.00000000    
  -1.13549996E-02   0.00000000    
  -1.13399997E-02   0.00000000    
  -1.13249999E-02   0.00000000    
  -1.13100000E-02   0.00000000    
  -1.12950001E-02   0.00000000    
  -1.12800002E-02   0.00000000    
  -1.12650003E-02   0.00000000    
  -1.12500004E-02   0.00000000    
  -1.12349996E-02   0.00000000    
  -1.12199998E-02   0.00000000    
  -1.12049999E-02   0.00000000    
  -1.11900000E-02   0.00000000    
  -1.11750001E-02   0.00000000    
  -1.11600002E-02   0.00000000    
  -1.11450003E-02   0.00000000    
  -1.11300005E-02   0.00000000    
  -1.11149997E-02   0.00000000    
  -1.10999998E-02   0.00000000    
  -1.10849999E-02   0.00000000    
  -1.10700000E-02   0.00000000    
  -1.10550001E-02   0.00000000    
  -1.10400002E-02   0.00000000    
  -1.10250004E-02   0.00000000    
  -1.10099996E-02   0.00000000    
  -1.09949997E-02   0.00000000    
  -1.09799998E-02   0.00000000    
  -1.09649999E-02   0.00000000    
  -1.09500000E-02   0.00000000    
  -1.09350001E-02   0.00000000    
  -1.09200003E-02   0.00000000    
  -1.09050004E-02   0.00000000    
  -1.08899996E-02   0.00000000    
  -1.08749997E-02   0.00000000    
  -1.08599998E-02   0.00000000    
  -1.08449999E-02   0.00000000    
  -1.08300000E-02   0.00000000    
  -1.08150002E-02   0.00000000    
  -1.08000003E-02   0.00000000    
  -1.07850004E-02   0.00000000    
  -1.07699996E-02   0.00000000    
  -1.07549997E-02   0.00000000    
  -1.07399998E-02   0.00000000    
  -1.07249999E-02   0.00000000    
  -1.07100001E-02   0.00000000    
  -1.06950002E-02   0.00000000    
  -1.06800003E-02   0.00000000    
  -1.06650004E-02   0.00000000    
  -1.06499996E-02   0.00000000    
  -1.06349997E-02   0.00000000    
  -1.06199998E-02   0.00000000    
  -1.06050000E-02   0.00000000    
  -1.05900001E-02   0.00000000    
  -1.05750002E-02   0.00000000    
  -1.05600003E-02   0.00000000    
  -1.05450004E-02   0.00000000    
  -1.05299996E-02   0.00000000    
  -1.05149997E-02   0.00000000    
  -1.04999999E-02   0.00000000    
  -1.04850000E-02   0.00000000    
  -1.04700001E-02   0.00000000    
  -1.04550002E-02   0.00000000    
  -1.04400003E-02   0.00000000    
  -1.04250005E-02   0.00000000    
  -1.04099996E-02   0.00000000    
  -1.03949998E-02   0.00000000    
  -1.03799999E-02   0.00000000    
  -1.03650000E-02   0.00000000    
  -1.03500001E-02   0.00000000    
  -1.03350002E-02   0.00000000    
  -1.03200004E-02   0.00000000    
  -1.03049995E-02   0.00000000    
  -1.02899997E-02   0.00000000    
  -1.02749998E-02   0.00000000    
  -1.02599999E-02   0.00000000    
  -1.02450000E-02   0.00000000    
  -1.02300001E-02   0.00000000    
  -1.02150002E-02   0.00000000    
  -1.02000004E-02   0.00000000    
  -1.01849996E-02   0.00000000    
  -1.01699997E-02   0.00000000    
  -1.01549998E-02   0.00000000    
  -1.01399999E-02   0.00000000    
  -1.01250000E-02   0.00000000    
  -1.01100001E-02   0.00000000    
  -1.00950003E-02   0.00000000    
  -1.00800004E-02   0.00000000    
  -1.00649996E-02   0.00000000    
  -1.00499997E-02   0.00000000    
  -1.00349998E-02   0.00000000    
  -1.00199999E-02   0.00000000    
  -1.00050000E-02   0.00000000    
  -9.99000017E-03   0.00000000    
  -9.97500028E-03   0.00000000    
  -9.96000040E-03   0.00000000    
  -9.94499959E-03   0.00000000    
  -9.92999971E-03   0.00000000    
  -9.91499983E-03   0.00000000    
  -9.89999995E-03   0.00000000    
  -9.88500006E-03   0.00000000    
  -9.87000018E-03   0.00000000    
  -9.85500030E-03   0.00000000    
  -9.84000042E-03   0.00000000    
  -9.82499961E-03   0.00000000    
  -9.80999973E-03   0.00000000    
  -9.79499985E-03   0.00000000    
  -9.77999996E-03   0.00000000    
  -9.76500008E-03   0.00000000    
  -9.75000020E-03   0.00000000    
  -9.73500032E-03   0.00000000    
  -9.72000044E-03   0.00000000    
  -9.70499963E-03   0.00000000    
  -9.68999974E-03   0.00000000    
  -9.67499986E-03   0.00000000    
  -9.65999998E-03   0.00000000    
  -9.64500010E-03   0.00000000    
  -9.63000022E-03   0.00000000    
  -9.61500034E-03   0.00000000    
  -9.60000046E-03   0.00000000    
  -9.58499964E-03   0.00000000    
  -9.56999976E-03   0.00000000    
  -9.55499988E-03   0.00000000    
  -9.54000000E-03   0.00000000    
  -9.52500012E-03   0.00000000    
  -9.51000024E-03   0.00000000    
  -9.49500035E-03   0.00000000    
  -9.47999954E-03   0.00000000    
  -9.46499966E-03   0.00000000    
  -9.44999978E-03   0.00000000    
  -9.43499990E-03   0.00000000    
  -9.42000002E-03   0.00000000    
  -9.40500014E-03   0.00000000    
  -9.39000025E-03   0.00000000    
  -9.37500037E-03   0.00000000    
  -9.35999956E-03   0.00000000    
  -9.34499968E-03   0.00000000    
  -9.32999980E-03   0.00000000    
  -9.31499992E-03   0.00000000    
  -9.30000003E-03   0.00000000    
  -9.28500015E-03   0.00000000    
  -9.27000027E-03   0.00000000    
  -9.25500039E-03   0.00000000    
  -9.23999958E-03   0.00000000    
  -9.22499970E-03   0.00000000    
  -9.20999981E-03   0.00000000    
  -9.19499993E-03   0.00000000    
  -9.18000005E-03   0.00000000    
  -9.16500017E-03   8.82851990E-35
  -9.15000029E-03   1.35115361E-34
  -9.13500041E-03   1.79987471E-34
  -9.11999959E-03   1.79987471E-34
  -9.10499971E-03   1.79987471E-34
  -9.08999983E-03   1.79987471E-34
  -9.07499995E-03   1.79987471E-34
  -9.06000007E-03   1.79987471E-34
  -9.04500019E-03   1.37590041E-34
  -9.03000031E-03   0.00000000    
  -9.01500043E-03   0.00000000    
  -8.99999961E-03  -1.28044924E-34
  -8.98499973E-03  -2.84720941E-34
  -8.96999985E-03  -4.66523724E-34
  -8.95499997E-03  -6.67738739E-34
  -8.94000009E-03  -8.80278863E-34
  -8.92500021E-03  -1.09373165E-33
  -8.91000032E-03  -1.29556495E-33
  -8.89500044E-03  -1.47147079E-33
  -8.87999963E-03  -1.60580591E-33
  -8.86499975E-03  -1.68200274E-33
  -8.84999987E-03  -1.64026223E-33
  -8.83499999E-03  -1.50105467E-33
  -8.82000010E-03  -1.14678308E-33
  -8.80500022E-03  -5.22800699E-34
  -8.79000034E-03   6.11214543E-34
  -8.77500046E-03   2.19912677E-33
  -8.75999965E-03   5.10353289E-33
  -8.74499977E-03   1.04622627E-32
  -8.72999988E-03   1.20551677E-32
  -8.71500000E-03   9.93598869E-33
  -8.70000012E-03   1.17001567E-32
  -8.68500024E-03   1.32372507E-32
  -8.67000036E-03   1.41309585E-32
  -8.65499955E-03   1.31340129E-32
  -8.63999967E-03   1.27847353E-32
  -8.62499978E-03   1.02453634E-32
  -8.60999990E-03   2.18710036E-33
  -8.59500002E-03  -4.66741649E-34
  -8.58000014E-03  -1.26317785E-32
  -8.56500026E-03  -2.46309148E-32
  -8.55000038E-03  -3.76007993E-32
  -8.53499956E-03  -5.11688283E-32
  -8.51999968E-03  -6.42566766E-32
  -8.50499980E-03  -7.60686962E-32
  -8.48999992E-03  -8.69970321E-32
  -8.47500004E-03  -9.76664947E-32
  -8.46000016E-03  -1.06564993E-31
  -8.44500028E-03  -1.11143132E-31
  -8.43000039E-03  -1.04107434E-31
  -8.41499958E-03  -9.27076307E-32
  -8.39999970E-03  -6.29600240E-32
  -8.38499982E-03  -4.76341726E-32
  -8.36999994E-03  -1.65413787E-32
  -8.35500006E-03   2.63573035E-33
  -8.34000017E-03   6.02527312E-32
  -8.32500029E-03   2.11797093E-31
  -8.31000041E-03   2.77523566E-31
  -8.29499960E-03   2.71595713E-31
  -8.27999972E-03   3.40695996E-31
  -8.26499984E-03   4.08794947E-31
  -8.24999996E-03   4.70435002E-31
  -8.23500007E-03   4.88534606E-31
  -8.22000019E-03   5.78780363E-31
  -8.20500031E-03   6.93300362E-31
  -8.19000043E-03   5.93854292E-31
  -8.17499962E-03   4.62962714E-31
  -8.15999974E-03   4.69422572E-31
  -8.14499985E-03   3.62848117E-31
  -8.12999997E-03   1.98168529E-31
  -8.11500009E-03  -4.76133810E-32
  -8.10000021E-03  -3.01782972E-31
  -8.08500033E-03  -6.06416847E-31
  -8.07000045E-03  -9.42884707E-31
  -8.05499963E-03  -1.34303549E-30
  -8.03999975E-03  -1.77648173E-30
  -8.02499987E-03  -2.18283094E-30
  -8.00999999E-03  -2.56337570E-30
  -7.99500011E-03  -2.82137979E-30
  -7.98000023E-03  -3.05162076E-30
  -7.96500035E-03  -3.06929869E-30
  -7.95000046E-03  -3.05010861E-30
  -7.93499965E-03  -2.72613766E-30
  -7.91999977E-03  -2.21815991E-30
  -7.90499989E-03  -1.52103280E-30
  -7.89000001E-03  -5.29146525E-31
  -7.87500013E-03   6.49220264E-31
  -7.86000025E-03   2.00163441E-30
  -7.84500036E-03   3.51628503E-30
  -7.82999955E-03   5.12186098E-30
  -7.81499967E-03   6.74000851E-30
  -7.79999979E-03   8.25305293E-30
  -7.78499991E-03   9.63886861E-30
  -7.77000003E-03   1.07234786E-29
  -7.75500014E-03   1.13486799E-29
  -7.73999980E-03   1.15446538E-29
  -7.72499992E-03   1.14487899E-29
  -7.71000003E-03   1.04621006E-29
  -7.69500015E-03   8.65830771E-30
  -7.67999981E-03   5.93522182E-30
  -7.66499992E-03   1.58108598E-30
  -7.65000004E-03  -2.81906416E-30
  -7.63500016E-03  -7.53113163E-30
  -7.61999981E-03  -1.26434261E-29
  -7.60499993E-03  -1.79840841E-29
  -7.59000005E-03  -2.35629569E-29
  -7.57500017E-03  -2.89731966E-29
  -7.55999982E-03  -3.36211276E-29
  -7.54499994E-03  -3.79628718E-29
  -7.53000006E-03  -4.05533439E-29
  -7.51500018E-03  -4.09413014E-29
  -7.49999983E-03  -3.85238200E-29
  -7.48499995E-03  -3.36005833E-29
  -7.47000007E-03  -2.54511552E-29
  -7.45500019E-03  -1.44659472E-29
  -7.43999984E-03  -9.82070235E-31
  -7.42499996E-03   1.54439796E-29
  -7.41000008E-03   3.27899504E-29
  -7.39500020E-03   5.01105666E-29
  -7.37999985E-03   6.94108161E-29
  -7.36499997E-03   8.82607832E-29
  -7.35000009E-03   1.04619006E-28
  -7.33500021E-03   1.18528120E-28
  -7.31999986E-03   1.28293332E-28
  -7.30499998E-03   1.33617878E-28
  -7.29000010E-03   1.32930959E-28
  -7.27500021E-03   1.25642554E-28
  -7.25999987E-03   1.10209969E-28
  -7.24499999E-03   8.52021537E-29
  -7.23000010E-03   5.11519049E-29
  -7.21500022E-03   8.17150785E-30
  -7.19999988E-03  -4.13270230E-29
  -7.18499999E-03  -9.63360089E-29
  -7.17000011E-03  -1.56321294E-28
  -7.15500023E-03  -2.17170436E-28
  -7.13999989E-03  -2.78200195E-28
  -7.12500000E-03  -3.34429405E-28
  -7.11000012E-03  -3.82593495E-28
  -7.09499978E-03  -4.19198778E-28
  -7.07999989E-03  -4.40730290E-28
  -7.06500001E-03  -4.43092202E-28
  -7.05000013E-03  -4.23748788E-28
  -7.03499978E-03  -3.81269971E-28
  -7.01999990E-03  -3.13236279E-28
  -7.00500002E-03  -2.17981783E-28
  -6.99000014E-03  -9.50880484E-29
  -6.97499979E-03   5.18097544E-29
  -6.95999991E-03   2.18808705E-28
  -6.94500003E-03   4.02377923E-28
  -6.93000015E-03   5.94990249E-28
  -6.91499980E-03   7.88847568E-28
  -6.89999992E-03   9.74530663E-28
  -6.88500004E-03   1.14094411E-27
  -6.87000016E-03   1.27709339E-27
  -6.85499981E-03   1.37230655E-27
  -6.83999993E-03   1.41591943E-27
  -6.82500005E-03   1.39856064E-27
  -6.81000017E-03   1.31116617E-27
  -6.79499982E-03   1.14699856E-27
  -6.77999994E-03   9.02720921E-28
  -6.76500006E-03   5.77201397E-28
  -6.75000018E-03   1.74763758E-28
  -6.73499983E-03  -2.96548217E-28
  -6.71999995E-03  -8.24400187E-28
  -6.70500007E-03  -1.39171357E-27
  -6.69000018E-03  -1.97732801E-27
  -6.67499984E-03  -2.55588141E-27
  -6.65999996E-03  -3.09938134E-27
  -6.64500007E-03  -3.57704240E-27
  -6.63000019E-03  -3.95627495E-27
  -6.61499985E-03  -4.20517328E-27
  -6.59999996E-03  -4.29375758E-27
  -6.58500008E-03  -4.19486917E-27
  -6.57000020E-03  -3.88694725E-27
  -6.55499985E-03  -3.35457553E-27
  -6.53999997E-03  -2.59169061E-27
  -6.52500009E-03  -1.60180528E-27
  -6.51000021E-03  -3.99395476E-28
  -6.49499986E-03   9.89773532E-28
  -6.47999998E-03   2.52674613E-27
  -6.46500010E-03   4.15995938E-27
  -6.45000022E-03   5.82710250E-27
  -6.43499987E-03   7.45622083E-27
  -6.41999999E-03   8.96705509E-27
  -6.40500011E-03   1.02747199E-26
  -6.39000023E-03   1.12916055E-26
  -6.37499988E-03   1.19328424E-26
  -6.36000000E-03   1.21193402E-26
  -6.34500012E-03   1.17825690E-26
  -6.32999977E-03   1.08705726E-26
  -6.31499989E-03   9.34986372E-27
  -6.30000001E-03   7.21036432E-27
  -6.28500013E-03   4.47004719E-27
  -6.26999978E-03   1.17663246E-27
  -6.25499990E-03  -2.59066717E-27
  -6.24000002E-03  -6.72128365E-27
  -6.22500014E-03  -1.10744408E-26
  -6.20999979E-03  -1.54814415E-26
  -6.19499991E-03  -1.97501974E-26
  -6.18000003E-03  -2.36714031E-26
  -6.16500014E-03  -2.70253023E-26
  -6.14999980E-03  -2.95918304E-26
  -6.13499992E-03  -3.11595682E-26
  -6.12000003E-03  -3.15380643E-26
  -6.10500015E-03  -3.05690103E-26
  -6.08999981E-03  -2.81337658E-26
  -6.07499992E-03  -2.41669279E-26
  -6.06000004E-03  -1.86655291E-26
  -6.04500016E-03  -1.16953328E-26
  -6.02999981E-03  -3.39734581E-27
  -6.01499993E-03   6.01189163E-27
  -6.00000005E-03   1.62407571E-26
  -5.98500017E-03   2.69274034E-26
  -5.96999982E-03   3.76479769E-26
  -5.95499994E-03   4.79281996E-26
  -5.94000006E-03   5.72596106E-26
  -5.92500018E-03   6.51207697E-26
  -5.90999983E-03   7.09977650E-26
  -5.89499995E-03   7.44093604E-26
  -5.88000007E-03   7.49328867E-26
  -5.86500019E-03   7.22289981E-26
  -5.84999984E-03   6.60682841E-26
  -5.83499996E-03   5.63524821E-26
  -5.82000008E-03   4.31327234E-26
  -5.80500020E-03   2.66243514E-26
  -5.78999985E-03   7.21443882E-27
  -5.77499997E-03  -1.45368191E-26
  -5.76000009E-03  -3.79041687E-26
  -5.74500021E-03  -6.20123742E-26
  -5.72999986E-03  -8.58603605E-26
  -5.71499998E-03  -1.08354655E-25
  -5.70000010E-03  -1.28348828E-25
  -5.68500021E-03  -1.44691302E-25
  -5.66999987E-03  -1.56278300E-25
  -5.65499999E-03  -1.62109141E-25
  -5.64000010E-03  -1.61342639E-25
  -5.62500022E-03  -1.53353919E-25
  -5.60999988E-03  -1.37784443E-25
  -5.59500000E-03  -1.14585683E-25
  -5.58000011E-03  -8.40539984E-26
  -5.56500023E-03  -4.68520639E-26
  -5.54999989E-03  -4.01595836E-27
  -5.53500000E-03   4.30562069E-26
  -5.52000012E-03   9.26316405E-26
  -5.50499978E-03   1.42689949E-25
  -5.48999989E-03   1.90988513E-25
  -5.47500001E-03   2.35144423E-25
  -5.46000013E-03   2.72732166E-25
  -5.44499978E-03   3.01392814E-25
  -5.42999990E-03   3.18951773E-25
  -5.41500002E-03   3.23538358E-25
  -5.40000014E-03   3.13705231E-25
  -5.38499979E-03   2.88538572E-25
  -5.36999991E-03   2.47755252E-25
  -5.35500003E-03   1.91779198E-25
  -5.34000015E-03   1.21791015E-25
  -5.32499980E-03   3.97490247E-26
  -5.30999992E-03  -5.16263456E-26
  -5.29500004E-03  -1.48905914E-25
  -5.28000016E-03  -2.48043112E-25
  -5.26499981E-03  -3.44505541E-25
  -5.24999993E-03  -4.33442780E-25
  -5.23500005E-03  -5.09885620E-25
  -5.22000017E-03  -5.68973471E-25
  -5.20499982E-03  -6.06196416E-25
  -5.18999994E-03  -6.17648211E-25
  -5.17500006E-03  -6.00274387E-25
  -5.16000018E-03  -5.52107773E-25
  -5.14499983E-03  -4.72470835E-25
  -5.12999995E-03  -3.62139442E-25
  -5.11500007E-03  -2.23456117E-25
  -5.10000018E-03  -6.03752290E-26
  -5.08499984E-03   1.21563330E-25
  -5.06999996E-03   3.15336645E-25
  -5.05500007E-03   5.12630610E-25
  -5.04000019E-03   7.04104210E-25
  -5.02499985E-03   8.79741231E-25
  -5.00999996E-03   1.02926084E-24
  -4.99500008E-03   1.14259146E-24
  -4.98000020E-03   1.21038084E-24
  -4.96499985E-03   1.22452364E-24
  -4.94999997E-03   1.17868549E-24
  -4.93500009E-03   1.06879658E-24
  -4.92000021E-03   8.93486541E-25
  -4.90499986E-03   6.54436492E-25
  -4.88999998E-03   3.56616726E-25
  -4.87500010E-03   8.39997735E-27
  -4.86000022E-03  -3.78490359E-25
  -4.84499987E-03  -7.89185521E-25
  -4.82999999E-03  -1.20605769E-24
  -4.81500011E-03  -1.60927940E-24
  -4.80000023E-03  -1.97754137E-24
  -4.78499988E-03  -2.28892390E-24
  -4.77000000E-03  -2.52188833E-24
  -4.75500012E-03  -2.65634986E-24
  -4.73999977E-03  -2.67480132E-24
  -4.72499989E-03  -2.56342599E-24
  -4.71000001E-03  -2.31315632E-24
  -4.69500013E-03  -1.92061618E-24
  -4.67999978E-03  -1.38888922E-24
  -4.66499990E-03  -7.28063494E-25
  -4.65000002E-03   4.44966330E-26
  -4.63500014E-03   9.04202230E-25
  -4.61999979E-03   1.81963291E-24
  -4.60499991E-03   2.75330028E-24
  -4.59000003E-03   3.66277387E-24
  -4.57500014E-03   4.50215935E-24
  -4.55999980E-03   5.22388780E-24
  -4.54499992E-03   5.78079204E-24
  -4.53000003E-03   6.12834956E-24
  -4.51500015E-03   6.22705618E-24
  -4.49999981E-03   6.04480840E-24
  -4.48499992E-03   5.55917459E-24
  -4.47000004E-03   4.75945817E-24
  -4.45500016E-03   3.64842134E-24
  -4.43999982E-03   2.24356262E-24
  -4.42499993E-03   5.77838099E-25
  -4.41000005E-03  -1.30027509E-24
  -4.39500017E-03  -3.32739163E-24
  -4.37999982E-03  -5.42663806E-24
  -4.36499994E-03  -7.50979095E-24
  -4.35000006E-03  -9.48017379E-24
  -4.33500018E-03  -1.12362507E-23
  -4.31999983E-03  -1.26757633E-23
  -4.30499995E-03  -1.37003588E-23
  -4.29000007E-03  -1.42204548E-23
  -4.27500019E-03  -1.41602110E-23
  -4.25999984E-03  -1.34623547E-23
  -4.24499996E-03  -1.20926058E-23
  -4.23000008E-03  -1.00435301E-23
  -4.21500020E-03  -7.33748952E-24
  -4.19999985E-03  -4.02855014E-24
  -4.18499997E-03  -2.03132620E-25
  -4.17000009E-03   4.02078932E-24
  -4.15500021E-03   8.49588838E-24
  -4.13999986E-03   1.30493915E-23
  -4.12499998E-03   1.74883726E-23
  -4.11000010E-03   2.16064931E-23
  -4.09500021E-03   2.51919748E-23
  -4.07999987E-03   2.80365804E-23
  -4.06499999E-03   2.99452609E-23
  -4.05000011E-03   3.07460463E-23
  -4.03500022E-03   3.02998381E-23
  -4.01999988E-03   2.85096130E-23
  -4.00500000E-03   2.53285566E-23
  -3.99000011E-03   2.07666718E-23
  -3.97500023E-03   1.48953915E-23
  -3.95999989E-03   7.84998484E-24
  -3.94500000E-03  -1.70934424E-25
  -3.93000012E-03  -8.90850838E-24
  -3.91499978E-03  -1.80498806E-23
  -3.89999989E-03  -2.72372718E-23
  -3.88500001E-03  -3.60799955E-23
  -3.86999990E-03  -4.41687702E-23
  -3.85500002E-03  -5.10922521E-23
  -3.83999990E-03  -5.64548559E-23
  -3.82500002E-03  -5.98955958E-23
  -3.80999991E-03  -6.11067498E-23
  -3.79500003E-03  -5.98517288E-23
  -3.77999991E-03  -5.59813879E-23
  -3.76500003E-03  -4.94475276E-23
  -3.74999992E-03  -4.03132062E-23
  -3.73500003E-03  -2.87588141E-23
  -3.71999992E-03  -1.50834733E-23
  -3.70500004E-03   2.98652385E-25
  -3.68999992E-03   1.68677852E-23
  -3.67500004E-03   3.40128266E-23
  -3.65999993E-03   5.10512092E-23
  -3.64500005E-03   6.72533646E-23
  -3.62999993E-03   8.18710077E-23
  -3.61500005E-03   9.41684467E-23
  -3.59999994E-03   1.03455731E-22
  -3.58500006E-03   1.09121968E-22
  -3.56999994E-03   1.10667946E-22
  -3.55500006E-03   1.07735832E-22
  -3.53999995E-03   1.00134898E-22
  -3.52500007E-03   8.78616300E-23
  -3.50999995E-03   7.11130149E-23
  -3.49500007E-03   5.02917413E-23
  -3.47999996E-03   2.60026272E-23
  -3.46500007E-03  -9.59861495E-25
  -3.44999996E-03  -2.96339102E-23
  -3.43500008E-03  -5.89211443E-23
  -3.41999996E-03  -8.76256912E-23
  -3.40500008E-03  -1.14500169E-22
  -3.38999997E-03  -1.38296998E-22
  -3.37500009E-03  -1.57823034E-22
  -3.35999997E-03  -1.71995255E-22
  -3.34500009E-03  -1.79895148E-22
  -3.32999998E-03  -1.80819062E-22
  -3.31500010E-03  -1.74322256E-22
  -3.29999998E-03  -1.60253950E-22
  -3.28500010E-03  -1.38781459E-22
  -3.26999999E-03  -1.10401626E-22
  -3.25500011E-03  -7.59377955E-23
  -3.23999999E-03  -3.65224676E-23
  -3.22500011E-03   6.43548664E-24
  -3.21000000E-03   5.12972076E-23
  -3.19500011E-03   9.62540246E-23
  -3.18000000E-03   1.39398626E-22
  -3.16499989E-03   1.78803655E-22
  -3.15000000E-03   2.12607177E-22
  -3.13499989E-03   2.39098439E-22
  -3.12000001E-03   2.56802371E-22
  -3.10499989E-03   2.64557265E-22
  -3.09000001E-03   2.61583020E-22
  -3.07499990E-03   2.47534682E-22
  -3.06000002E-03   2.22539529E-22
  -3.04499990E-03   1.87214439E-22
  -3.03000002E-03   1.42660963E-22
  -3.01499991E-03   9.04387755E-23
  -3.00000003E-03   3.25158273E-23
  -2.98499991E-03  -2.88017345E-23
  -2.97000003E-03  -9.09606101E-23
  -2.95499992E-03  -1.51264912E-22
  -2.94000003E-03  -2.06994640E-22
  -2.92499992E-03  -2.55529314E-22
  -2.91000004E-03  -2.94473042E-22
  -2.89499993E-03  -3.21776187E-22
  -2.88000004E-03  -3.35844442E-22
  -2.86499993E-03  -3.35632497E-22
  -2.85000005E-03  -3.20716008E-22
  -2.83499993E-03  -2.91336606E-22
  -2.82000005E-03  -2.48417752E-22
  -2.80499994E-03  -1.93548247E-22
  -2.79000006E-03  -1.28933017E-22
  -2.77499994E-03  -5.73123540E-23
  -2.76000006E-03   1.81490420E-23
  -2.74499995E-03   9.39979202E-23
  -2.73000007E-03   1.66649315E-22
  -2.71499995E-03   2.32555185E-22
  -2.70000007E-03   2.88381218E-22
  -2.68499996E-03   3.31178525E-22
  -2.67000007E-03   3.58545157E-22
  -2.65499996E-03   3.68767684E-22
  -2.64000008E-03   3.60934156E-22
  -2.62499996E-03   3.35012439E-22
  -2.61000008E-03   2.91887850E-22
  -2.59499997E-03   2.33356037E-22
  -2.58000009E-03   1.62068835E-22
  -2.56499997E-03   8.14356322E-23
  -2.55000009E-03  -4.52053074E-24
  -2.53499998E-03  -9.13444635E-23
  -2.52000010E-03  -1.74360411E-22
  -2.50499998E-03  -2.48907325E-22
  -2.49000010E-03  -3.10583601E-22
  -2.47499999E-03  -3.55491344E-22
  -2.46000011E-03  -3.80467286E-22
  -2.44499999E-03  -3.83286991E-22
  -2.43000011E-03  -3.62831234E-22
  -2.41500000E-03  -3.19204248E-22
  -2.40000011E-03  -2.53793088E-22
  -2.38500000E-03  -1.69264711E-22
  -2.36999989E-03  -6.94937801E-23
  -2.35500000E-03   4.05739152E-23
  -2.33999989E-03   1.55124524E-22
  -2.32500001E-03   2.67737498E-22
  -2.30999989E-03   3.71690407E-22
  -2.29500001E-03   4.60300868E-22
  -2.27999990E-03   5.27287857E-22
  -2.26500002E-03   5.67131568E-22
  -2.24999990E-03   5.75418419E-22
  -2.23500002E-03   5.49148164E-22
  -2.21999991E-03   4.86990166E-22
  -2.20500003E-03   3.89464113E-22
  -2.18999991E-03   2.59043594E-22
  -2.17500003E-03   1.00158419E-22
  -2.15999992E-03  -8.08969475E-23