  -1.49999997E-02   0.00000000    
  -1.49849998E-02   0.00000000    
  -1.49699999E-02   0.00000000    
  -1.49550000E-02   0.00000000    
  -1.49400001E-02   0.00000000    
  -1.49250003E-02   0.00000000    
  -1.49100004E-02   0.00000000    
  -1.48949996E-02   0.00000000    
  -1.48799997E-02   0.00000000    
  -1.48649998E-02   0.00000000    
  -1.48499999E-02   0.00000000    
  -1.48350000E-02   0.00000000    
  -1.48200002E-02   0.00000000    
  -1.48050003E-02   0.00000000    
  -1.47900004E-02   0.00000000    
  -1.47749996E-02   0.00000000    
  -1.47599997E-02   0.00000000    
  -1.47449998E-02   0.00000000    
  -1.47299999E-02   0.00000000    
  -1.47150001E-02   0.00000000    
  -1.47000002E-02   0.00000000    
  -1.46850003E-02   0.00000000    
  -1.46700004E-02   0.00000000    
  -1.46549996E-02   0.00000000    
  -1.46399997E-02   0.00000000    
  -1.46249998E-02   0.00000000    
  -1.46100000E-02   0.00000000    
  -1.45950001E-02   0.00000000    
  -1.45800002E-02   0.00000000    
  -1.45650003E-02   0.00000000    
  -1.45500004E-02   0.00000000    
  -1.45349996E-02   0.00000000    
  -1.45199997E-02   0.00000000    
  -1.45049999E-02   0.00000000    
  -1.44900000E-02   0.00000000    
  -1.44750001E-02   0.00000000    
  -1.44600002E-02   0.00000000    
  -1.44450003E-02   0.00000000    
  -1.44300004E-02   0.00000000    
  -1.44149996E-02   0.00000000    
  -1.43999998E-02   0.00000000    
  -1.43849999E-02   0.00000000    
  -1.43700000E-02   0.00000000    
  -1.43550001E-02   0.00000000    
  -1.43400002E-02   0.00000000    
  -1.43250003E-02   0.00000000    
  -1.43100005E-02   0.00000000    
  -1.42949997E-02   0.00000000    
  -1.42799998E-02   0.00000000    
  -1.42649999E-02   0.00000000    
  -1.42500000E-02   0.00000000    
  -1.42350001E-02   0.00000000    
  -1.42200002E-02   0.00000000    
  -1.42050004E-02   0.00000000    
  -1.41899996E-02   0.00000000    
  -1.41749997E-02   0.00000000    
  -1.41599998E-02   0.00000000    
  -1.41449999E-02   0.00000000    
  -1.41300000E-02   0.00000000    
  -1.41150001E-02   0.00000000    
  -1.41000003E-02   0.00000000    
  -1.40850004E-02   0.00000000    
  -1.40699996E-02   0.00000000    
  -1.40549997E-02   0.00000000    
  -1.40399998E-02   0.00000000    
  -1.40249999E-02   0.00000000    
  -1.40100000E-02   0.00000000    
  -1.39950002E-02   0.00000000    
  -1.39800003E-02   0.00000000    
  -1.39650004E-02   0.00000000    
  -1.39499996E-02   0.00000000    
  -1.39349997E-02   0.00000000    
  -1.39199998E-02   0.00000000    
  -1.39049999E-02   0.00000000    
  -1.38900001E-02   0.00000000    
  -1.38750002E-02   0.00000000    
  -1.38600003E-02   0.00000000    
  -1.38450004E-02   0.00000000    
  -1.38299996E-02   0.00000000    
  -1.38149997E-02   0.00000000    
  -1.37999998E-02   0.00000000    
  -1.37850000E-02   0.00000000    
  -1.37700001E-02   0.00000000    
  -1.37550002E-02   0.00000000    
  -1.37400003E-02   0.00000000    
  -1.37250004E-02   0.00000000    
  -1.37099996E-02   0.00000000    
  -1.36949997E-02   0.00000000    
  -1.36799999E-02   0.00000000    
  -1.36650000E-02   0.00000000    
  -1.36500001E-02   0.00000000    
  -1.36350002E-02   0.00000000    
  -1.36200003E-02   0.00000000    
  -1.36050005E-02   0.00000000    
  -1.35899996E-02   0.00000000    
  -1.35749998E-02   0.00000000    
  -1.35599999E-02   0.00000000    
  -1.35450000E-02   0.00000000    
  -1.35300001E-02   0.00000000    
  -1.35150002E-02   0.00000000    
  -1.35000004E-02   0.00000000    
  -1.34849995E-02   0.00000000    
  -1.34699997E-02   0.00000000    
  -1.34549998E-02   0.00000000    
  -1.34399999E-02   0.00000000    
  -1.34250000E-02   0.00000000    
  -1.34100001E-02   0.00000000    
  -1.33950002E-02   0.00000000    
  -1.33800004E-02   0.00000000    
  -1.33649996E-02   0.00000000    
  -1.33499997E-02   0.00000000    
  -1.33349998E-02   0.00000000    
  -1.33199999E-02   0.00000000    
  -1.33050000E-02   0.00000000    
  -1.32900001E-02   0.00000000    
  -1.32750003E-02   0.00000000    
  -1.32600004E-02   0.00000000    
  -1.32449996E-02   0.00000000    
  -1.32299997E-02   0.00000000    
  -1.32149998E-02   0.00000000    
  -1.31999999E-02   0.00000000    
  -1.31850000E-02   0.00000000    
  -1.31700002E-02   0.00000000    
  -1.31550003E-02   0.00000000    
  -1.31400004E-02   0.00000000    
  -1.31249996E-02   0.00000000    
  -1.31099997E-02   0.00000000    
  -1.30949998E-02   0.00000000    
  -1.30799999E-02   0.00000000    
  -1.30650001E-02   0.00000000    
  -1.30500002E-02   0.00000000    
  -1.30350003E-02   0.00000000    
  -1.30200004E-02   0.00000000    
  -1.30049996E-02   0.00000000    
  -1.29899997E-02   0.00000000    
  -1.29749998E-02   0.00000000    
  -1.29600000E-02   0.00000000    
  -1.29450001E-02   0.00000000    
  -1.29300002E-02   0.00000000    
  -1.29150003E-02   0.00000000    
  -1.29000004E-02   0.00000000    
  -1.28849996E-02   0.00000000    
  -1.28699997E-02   0.00000000    
  -1.28549999E-02   0.00000000    
  -1.28400000E-02   0.00000000    
  -1.28250001E-02   0.00000000    
  -1.28100002E-02   0.00000000    
  -1.27950003E-02   0.00000000    
  -1.27800005E-02   0.00000000    
  -1.27649996E-02   0.00000000    
  -1.27499998E-02   0.00000000    
  -1.27349999E-02   0.00000000    
  -1.27200000E-02   0.00000000    
  -1.27050001E-02   0.00000000    
  -1.26900002E-02   0.00000000    
  -1.26750004E-02   0.00000000    
  -1.26599995E-02   0.00000000    
  -1.26449997E-02   0.00000000    
  -1.26299998E-02   0.00000000    
  -1.26149999E-02   0.00000000    
  -1.26000000E-02   0.00000000    
  -1.25850001E-02   0.00000000    
  -1.25700003E-02   0.00000000    
  -1.25550004E-02   0.00000000    
  -1.25399996E-02   0.00000000    
  -1.25249997E-02   0.00000000    
  -1.25099998E-02   0.00000000    
  -1.24949999E-02   0.00000000    
  -1.24800000E-02   0.00000000    
  -1.24650002E-02   0.00000000    
  -1.24500003E-02   0.00000000    
  -1.24350004E-02   0.00000000    
  -1.24199996E-02   0.00000000    
  -1.24049997E-02   0.00000000    
  -1.23899998E-02   0.00000000    
  -1.23749999E-02   0.00000000    
  -1.23600001E-02   0.00000000    
  -1.23450002E-02   0.00000000    
  -1.23300003E-02   0.00000000    
  -1.23150004E-02   0.00000000    
  -1.22999996E-02   0.00000000    
  -1.22849997E-02   0.00000000    
  -1.22699998E-02   0.00000000    
  -1.22550000E-02   0.00000000    
  -1.22400001E-02   0.00000000    
  -1.22250002E-02   0.00000000    
  -1.22100003E-02   0.00000000    
  -1.21950004E-02   0.00000000    
  -1.21799996E-02   0.00000000    
  -1.21649997E-02   0.00000000    
  -1.21499998E-02   0.00000000    
  -1.21350000E-02   0.00000000    
  -1.21200001E-02   0.00000000    
  -1.21050002E-02   0.00000000    
  -1.20900003E-02   0.00000000    
  -1.20750004E-02   0.00000000    
  -1.20599996E-02   0.00000000    
  -1.20449997E-02   0.00000000    
  -1.20299999E-02   0.00000000    
  -1.20150000E-02   0.00000000    
  -1.20000001E-02   0.00000000    
  -1.19850002E-02   0.00000000    
  -1.19700003E-02   0.00000000    
  -1.19550005E-02   0.00000000    
  -1.19399996E-02   0.00000000    
  -1.19249998E-02   0.00000000    
  -1.19099999E-02   0.00000000    
  -1.18950000E-02   0.00000000    
  -1.18800001E-02   0.00000000    
  -1.18650002E-02   0.00000000    
  -1.18500004E-02   0.00000000    
  -1.18349995E-02   0.00000000    
  -1.18199997E-02   0.00000000    
  -1.18049998E-02   0.00000000    
  -1.17899999E-02   0.00000000    
  -1.17750000E-02   0.00000000    
  -1.17600001E-02   0.00000000    
  -1.17450003E-02   0.00000000    
  -1.17300004E-02   0.00000000    
  -1.17149996E-02   0.00000000    
  -1.16999997E-02   0.00000000    
  -1.16849998E-02   0.00000000    
  -1.16699999E-02   0.00000000    
  -1.16550000E-02   0.00000000    
  -1.16400002E-02   0.00000000    
  -1.16250003E-02   0.00000000    
  -1.16100004E-02   0.00000000    
  -1.15949996E-02   0.00000000    
  -1.15799997E-02   0.00000000    
  -1.15649998E-02   0.00000000    
  -1.15499999E-02   0.00000000    
  -1.15350001E-02   0.00000000    
  -1.15200002E-02   0.00000000    
  -1.15050003E-02   0.00000000    
  -1.14900004E-02   0.00000000    
  -1.14749996E-02   0.00000000    
  -1.14599997E-02   0.00000000    
  -1.14449998E-02   0.00000000    
  -1.14300000E-02   0.00000000    
  -1.14150001E-02   0.00000000    
  -1.14000002E-02   0.00000000    
  -1.13850003E-02   0.00000000    
  -1.13700004E-02   0.00000000    
  -1.13549996E-02   0.00000000    
  -1.13399997E-02   0.00000000    
  -1.13249999E-02   0.00000000    
  -1.13100000E-02   0.00000000    
  -1.12950001E-02   0.00000000    
  -1.12800002E-02   0.00000000    
  -1.12650003E-02   0.00000000    
  -1.12500004E-02   0.00000000    
  -1.12349996E-02   0.00000000    
  -1.12199998E-02   0.00000000    
  -1.12049999E-02   0.00000000    
  -1.11900000E-02   0.00000000    
  -1.11750001E-02   0.00000000    
  -1.11600002E-02   0.00000000    
  -1.11450003E-02   0.00000000    
  -1.11300005E-02   0.00000000    
  -1.11149997E-02   0.00000000    
  -1.10999998E-02   0.00000000    
  -1.10849999E-02   0.00000000    
  -1.10700000E-02   0.00000000    
  -1.10550001E-02   0.00000000    
  -1.10400002E-02   0.00000000    
  -1.10250004E-02   0.00000000    
  -1.10099996E-02   0.00000000    
  -1.09949997E-02   0.00000000    
  -1.09799998E-02   0.00000000    
  -1.09649999E-02   0.00000000    
  -1.09500000E-02   0.00000000    
  -1.09350001E-02   0.00000000    
  -1.09200003E-02   0.00000000    
  -1.09050004E-02   0.00000000    
  -1.08899996E-02   0.00000000    
  -1.08749997E-02   0.00000000    
  -1.08599998E-02   0.00000000    
  -1.08449999E-02   0.00000000    
  -1.08300000E-02   0.00000000    
  -1.08150002E-02   0.00000000    
  -1.08000003E-02   0.00000000    
  -1.07850004E-02   0.00000000    
  -1.07699996E-02   0.00000000    
  -1.07549997E-02   0.00000000    
  -1.07399998E-02   0.00000000    
  -1.07249999E-02   0.00000000    
  -1.07100001E-02   0.00000000    
  -1.06950002E-02   0.00000000    
  -1.06800003E-02   0.00000000    
  -1.06650004E-02   0.00000000    
  -1.06499996E-02   0.00000000    
  -1.06349997E-02   0.00000000    
  -1.06199998E-02   0.00000000    
  -1.06050000E-02   0.00000000    
  -1.05900001E-02   0.00000000    
  -1.05750002E-02   0.00000000    
  -1.05600003E-02   0.00000000    
  -1.05450004E-02   0.00000000    
  -1.05299996E-02   0.00000000    
  -1.05149997E-02   0.00000000    
  -1.04999999E-02   0.00000000    
  -1.04850000E-02   0.00000000    
  -1.04700001E-02   0.00000000    
  -1.04550002E-02   0.00000000    
  -1.04400003E-02   0.00000000    
  -1.04250005E-02   0.00000000    
  -1.04099996E-02   0.00000000    
  -1.03949998E-02   0.00000000    
  -1.03799999E-02   0.00000000    
  -1.03650000E-02   0.00000000    
  -1.03500001E-02   0.00000000    
  -1.03350002E-02   0.00000000    
  -1.03200004E-02   0.00000000    
  -1.03049995E-02   0.00000000    
  -1.02899997E-02   0.00000000    
  -1.02749998E-02   0.00000000    
  -1.02599999E-02   0.00000000    
  -1.02450000E-02   0.00000000    
  -1.02300001E-02   0.00000000    
  -1.02150002E-02   0.00000000    
  -1.02000004E-02   0.00000000    
  -1.01849996E-02   0.00000000    
  -1.01699997E-02   0.00000000    
  -1.01549998E-02   0.00000000    
  -1.01399999E-02   0.00000000    
  -1.01250000E-02   0.00000000    
  -1.01100001E-02   0.00000000    
  -1.00950003E-02   0.00000000    
  -1.00800004E-02   0.00000000    
  -1.00649996E-02   0.00000000    
  -1.00499997E-02   0.00000000    
  -1.00349998E-02   0.00000000    
  -1.00199999E-02   0.00000000    
  -1.00050000E-02   0.00000000    
  -9.99000017E-03   0.00000000    
  -9.97500028E-03   0.00000000    
  -9.96000040E-03   0.00000000    
  -9.94499959E-03   0.00000000    
  -9.92999971E-03   0.00000000    
  -9.91499983E-03   0.00000000    
  -9.89999995E-03   0.00000000    
  -9.88500006E-03   0.00000000    
  -9.87000018E-03   0.00000000    
  -9.85500030E-03   0.00000000    
  -9.84000042E-03   0.00000000    
  -9.82499961E-03   0.00000000    
  -9.80999973E-03   0.00000000    
  -9.79499985E-03   0.00000000    
  -9.77999996E-03   0.00000000    
  -9.76500008E-03   0.00000000    
  -9.75000020E-03   0.00000000    
  -9.73500032E-03   0.00000000    
  -9.72000044E-03   0.00000000    
  -9.70499963E-03   0.00000000    
  -9.68999974E-03   0.00000000    
  -9.67499986E-03   0.00000000    
  -9.65999998E-03   0.00000000    
  -9.64500010E-03   0.00000000    
  -9.63000022E-03   0.00000000    
  -9.61500034E-03   0.00000000    
  -9.60000046E-03   0.00000000    
  -9.58499964E-03   0.00000000    
  -9.56999976E-03   0.00000000    
  -9.55499988E-03   0.00000000    
  -9.54000000E-03   0.00000000    
  -9.52500012E-03   0.00000000    
  -9.51000024E-03   0.00000000    
  -9.49500035E-03   0.00000000    
  -9.47999954E-03   0.00000000    
  -9.46499966E-03   0.00000000    
  -9.44999978E-03   0.00000000    
  -9.43499990E-03   0.00000000    
  -9.42000002E-03   0.00000000    
  -9.40500014E-03   0.00000000    
  -9.39000025E-03   0.00000000    
  -9.37500037E-03   0.00000000    
  -9.35999956E-03   0.00000000    
  -9.34499968E-03   0.00000000    
  -9.32999980E-03   0.00000000    
  -9.31499992E-03   0.00000000    
  -9.30000003E-03   0.00000000    
  -9.28500015E-03   0.00000000    
  -9.27000027E-03   0.00000000    
  -9.25500039E-03   0.00000000    
  -9.23999958E-03   0.00000000    
  -9.22499970E-03   0.00000000    
  -9.20999981E-03   0.00000000    
  -9.19499993E-03   0.00000000    
  -9.18000005E-03   0.00000000    
  -9.16500017E-03   0.00000000    
  -9.15000029E-03   0.00000000    
  -9.13500041E-03   0.00000000    
  -9.11999959E-03   0.00000000    
  -9.10499971E-03   0.00000000    
  -9.08999983E-03   0.00000000    
  -9.07499995E-03   0.00000000    
  -9.06000007E-03   0.00000000    
  -9.04500019E-03   0.00000000    
  -9.03000031E-03   0.00000000    
  -9.01500043E-03   0.00000000    
  -8.99999961E-03   0.00000000    
  -8.98499973E-03   0.00000000    
  -8.96999985E-03   0.00000000    
  -8.95499997E-03   0.00000000    
  -8.94000009E-03   0.00000000    
  -8.92500021E-03   0.00000000    
  -8.91000032E-03   0.00000000    
  -8.89500044E-03   0.00000000    
  -8.87999963E-03   0.00000000    
  -8.86499975E-03   0.00000000    
  -8.84999987E-03   0.00000000    
  -8.83499999E-03   0.00000000    
  -8.82000010E-03   0.00000000    
  -8.80500022E-03   0.00000000    
  -8.79000034E-03   0.00000000    
  -8.77500046E-03   0.00000000    
  -8.75999965E-03   0.00000000    
  -8.74499977E-03   0.00000000    
  -8.72999988E-03   0.00000000    
  -8.71500000E-03   0.00000000    
  -8.70000012E-03   0.00000000    
  -8.68500024E-03   0.00000000    
  -8.67000036E-03   0.00000000    
  -8.65499955E-03   0.00000000    
  -8.63999967E-03   0.00000000    
  -8.62499978E-03   0.00000000    
  -8.60999990E-03   0.00000000    
  -8.59500002E-03   0.00000000    
  -8.58000014E-03   0.00000000    
  -8.56500026E-03   0.00000000    
  -8.55000038E-03   0.00000000    
  -8.53499956E-03   0.00000000    
  -8.51999968E-03   0.00000000    
  -8.50499980E-03   0.00000000    
  -8.48999992E-03   0.00000000    
  -8.47500004E-03   0.00000000    
  -8.46000016E-03   0.00000000    
  -8.44500028E-03   0.00000000    
  -8.43000039E-03   0.00000000    
  -8.41499958E-03   0.00000000    
  -8.39999970E-03   0.00000000    
  -8.38499982E-03   0.00000000    
  -8.36999994E-03   0.00000000    
  -8.35500006E-03   0.00000000    
  -8.34000017E-03   0.00000000    
  -8.32500029E-03   0.00000000    
  -8.31000041E-03   0.00000000    
  -8.29499960E-03   0.00000000    
  -8.27999972E-03   0.00000000    
  -8.26499984E-03   0.00000000    
  -8.24999996E-03   0.00000000    
  -8.23500007E-03   0.00000000    
  -8.22000019E-03   0.00000000    
  -8.20500031E-03   0.00000000    
  -8.19000043E-03   0.00000000    
  -8.17499962E-03   0.00000000    
  -8.15999974E-03   0.00000000    
  -8.14499985E-03   0.00000000    
  -8.12999997E-03   0.00000000    
  -8.11500009E-03   0.00000000    
  -8.10000021E-03   0.00000000    
  -8.08500033E-03   0.00000000    
  -8.07000045E-03   0.00000000    
  -8.05499963E-03   0.00000000    
  -8.03999975E-03   0.00000000    
  -8.02499987E-03   0.00000000    
  -8.00999999E-03   0.00000000    
  -7.99500011E-03   0.00000000    
  -7.98000023E-03   0.00000000    
  -7.96500035E-03   0.00000000    
  -7.95000046E-03   0.00000000    
  -7.93499965E-03   0.00000000    
  -7.91999977E-03   0.00000000    
  -7.90499989E-03  -0.00000000    
  -7.89000001E-03  -0.00000000    
  -7.87500013E-03  -0.00000000    
  -7.86000025E-03  -0.00000000    
  -7.84500036E-03  -0.00000000    
  -7.82999955E-03  -1.26901897E-38
  -7.81499967E-03  -1.45312030E-38
  -7.79999979E-03  -1.58967516E-38
  -7.78499991E-03  -1.66186613E-38
  -7.77000003E-03  -1.61777175E-38
  -7.75500014E-03  -1.32740225E-38
  -7.73999980E-03  -0.00000000    
  -7.72499992E-03  -0.00000000    
  -7.71000003E-03  -0.00000000    
  -7.69500015E-03   0.00000000    
  -7.67999981E-03   1.21712146E-38
  -7.66499992E-03   3.45762212E-38
  -7.65000004E-03   4.79270475E-38
  -7.63500016E-03   5.84980115E-38
  -7.61999981E-03   6.81929734E-38
  -7.60499993E-03   7.62180752E-38
  -7.59000005E-03   8.61440328E-38
  -7.57500017E-03   9.53286305E-38
  -7.55999982E-03   9.81185037E-38
  -7.54499994E-03   9.93231944E-38
  -7.53000006E-03   8.76360345E-38
  -7.51500018E-03   6.29897897E-38
  -7.49999983E-03   2.90686727E-38
  -7.48499995E-03  -1.38175147E-38
  -7.47000007E-03  -6.47456279E-38
  -7.45500019E-03  -1.22137578E-37
  -7.43999984E-03  -1.83725542E-37
  -7.42499996E-03  -2.51168647E-37
  -7.41000008E-03  -3.08401196E-37
  -7.39500020E-03  -3.54364795E-37
  -7.37999985E-03  -4.04566481E-37
  -7.36499997E-03  -4.37205255E-37
  -7.35000009E-03  -4.48452323E-37
  -7.33500021E-03  -4.31969690E-37
  -7.31999986E-03  -3.89439542E-37
  -7.30499998E-03  -3.18571933E-37
  -7.29000010E-03  -2.20365685E-37
  -7.27500021E-03  -9.21934158E-38
  -7.25999987E-03   6.46070731E-38
  -7.24499999E-03   2.46991544E-37
  -7.23000010E-03   4.55791944E-37
  -7.21500022E-03   6.81500320E-37
  -7.19999988E-03   9.09931387E-37
  -7.18499999E-03   1.11807196E-36
  -7.17000011E-03   1.30718520E-36
  -7.15500023E-03   1.45601206E-36
  -7.13999989E-03   1.56067682E-36
  -7.12500000E-03   1.60326499E-36
  -7.11000012E-03   1.57060635E-36
  -7.09499978E-03   1.45186440E-36
  -7.07999989E-03   1.24176631E-36
  -7.06500001E-03   9.28634080E-37
  -7.05000013E-03   5.14137662E-37
  -7.03499978E-03   0.00000000    
  -7.01999990E-03  -5.76406209E-37
  -7.00500002E-03  -1.24175016E-36
  -6.99000014E-03  -1.95432537E-36
  -6.97499979E-03  -2.68829510E-36
  -6.95999991E-03  -3.41060782E-36
  -6.94500003E-03  -4.08368847E-36
  -6.93000015E-03  -4.66623402E-36
  -6.91499980E-03  -5.11579748E-36
  -6.89999992E-03  -5.38697945E-36
  -6.88500004E-03  -5.43889233E-36
  -6.87000016E-03  -5.23409307E-36
  -6.85499981E-03  -4.74194737E-36
  -6.83999993E-03  -3.94103243E-36
  -6.82500005E-03  -2.82153621E-36
  -6.81000017E-03  -1.38739525E-36
  -6.79499982E-03   3.41789722E-37
  -6.77999994E-03   2.32905006E-36
  -6.76500006E-03   4.51942207E-36
  -6.75000018E-03   6.83966382E-36
  -6.73499983E-03   9.19922766E-36
  -6.71999995E-03   1.14920694E-35
  -6.70500007E-03   1.35994193E-35
  -6.69000018E-03   1.53936338E-35
  -6.67499984E-03   1.67429512E-35
  -6.65999996E-03   1.75171933E-35
  -6.64500007E-03   1.75940754E-35
  -6.63000019E-03   1.68661227E-35
  -6.61499985E-03   1.52480099E-35
  -6.59999996E-03   1.26837318E-35
  -6.58500008E-03   9.15335870E-36
  -6.57000020E-03   4.67914086E-36
  -6.55499985E-03  -6.69640896E-37
  -6.53999997E-03  -6.77320290E-36
  -6.52500009E-03  -1.34598896E-35
  -6.51000021E-03  -2.05069883E-35
  -6.49499986E-03  -2.76439480E-35
  -6.47999998E-03  -3.45582138E-35
  -6.46500010E-03  -4.09039605E-35
  -6.45000022E-03  -4.63137140E-35
  -6.43499987E-03  -5.04123667E-35
  -6.41999999E-03  -5.28333742E-35
  -6.40500011E-03  -5.32367961E-35
  -6.39000023E-03  -5.13284028E-35
  -6.37499988E-03  -4.68794006E-35
  -6.36000000E-03  -3.97455102E-35
  -6.34500012E-03  -2.98847656E-35
  -6.32999977E-03  -1.73729470E-35
  -6.31499989E-03  -2.41524611E-36
  -6.30000001E-03   1.46461703E-35
  -6.28500013E-03   3.33299226E-35
  -6.26999978E-03   5.30194329E-35
  -6.25499990E-03   7.29736791E-35
  -6.24000002E-03   9.23450224E-35
  -6.22500014E-03   1.10204088E-34
  -6.20999979E-03   1.25571403E-34
  -6.19499991E-03   1.37455387E-34
  -6.18000003E-03   1.44895578E-34
  -6.16500014E-03   1.47009711E-34
  -6.14999980E-03   1.43043152E-34
  -6.13499992E-03   1.32418428E-34
  -6.12000003E-03   1.14782799E-34
  -6.10500015E-03   9.00511152E-35
  -6.08999981E-03   5.84414006E-35
  -6.07499992E-03   2.05015915E-35
  -6.06000004E-03  -2.28757773E-35
  -6.04500016E-03  -7.04528808E-35
  -6.02999981E-03  -1.20661453E-34
  -6.01499993E-03  -1.71634412E-34
  -6.00000005E-03  -2.21254692E-34
  -5.98500017E-03  -2.67220792E-34
  -5.96999982E-03  -3.07128251E-34
  -5.95499994E-03  -3.38564896E-34
  -5.94000006E-03  -3.59217689E-34
  -5.92500018E-03  -3.66987086E-34
  -5.90999983E-03  -3.60104314E-34
  -5.89499995E-03  -3.37247033E-34
  -5.88000007E-03  -2.97647682E-34
  -5.86500019E-03  -2.41188390E-34
  -5.84999984E-03  -1.68477579E-34
  -5.83499996E-03  -8.09014128E-35
  -5.82000008E-03   1.93540625E-35
  -5.80500020E-03   1.29314400E-34
  -5.78999985E-03   2.45265174E-34
  -5.77499997E-03   3.62839244E-34
  -5.76000009E-03   4.77142570E-34
  -5.74500021E-03   5.82917409E-34
  -5.72999986E-03   6.74739451E-34
  -5.71499998E-03   7.47242933E-34
  -5.70000010E-03   7.95366569E-34
  -5.68500021E-03   8.14611799E-34
  -5.66999987E-03   8.01301438E-34
  -5.65499999E-03   7.52828459E-34
  -5.64000010E-03   6.67880947E-34
  -5.62500022E-03   5.46631322E-34
  -5.60999988E-03   3.90877080E-34
  -5.59500000E-03   2.04121357E-34
  -5.58000011E-03  -8.41614853E-36
  -5.56500023E-03  -2.39865729E-34
  -5.54999989E-03  -4.81856991E-34
  -5.53500000E-03  -7.24751960E-34
  -5.52000012E-03  -9.57959295E-34
  -5.50499978E-03  -1.17032438E-33
  -5.48999989E-03  -1.35058433E-33
  -5.47500001E-03  -1.48787178E-33
  -5.46000013E-03  -1.57225180E-33
  -5.44499978E-03  -1.59526724E-33
  -5.42999990E-03  -1.55046915E-33
  -5.41500002E-03  -1.43390695E-33
  -5.40000014E-03  -1.24454849E-33
  -5.38499979E-03  -9.84606558E-34
  -5.36999991E-03  -6.59743403E-34
  -5.35500003E-03  -2.79135253E-34
  -5.34000015E-03   1.44623182E-34
  -5.32499980E-03   5.95784480E-34
  -5.30999992E-03   1.05588945E-33
  -5.29500004E-03   1.50437857E-33
  -5.28000016E-03   1.91936352E-33
  -5.26499981E-03   2.27853894E-33
  -5.24999993E-03   2.56020061E-33
  -5.23500005E-03   2.74433776E-33
  -5.22000017E-03   2.81375071E-33
  -5.20499982E-03   2.75514460E-33
  -5.18999994E-03   2.56014423E-33
  -5.17500006E-03   2.22617306E-33
  -5.16000018E-03   1.75714034E-33
  -5.14499983E-03   1.16388313E-33
  -5.12999995E-03   4.64320085E-34
  -5.11500007E-03  -3.16724142E-34
  -5.10000018E-03  -1.14804628E-33
  -5.08499984E-03  -1.99295259E-33
  -5.06999996E-03  -2.81050726E-33
  -5.05500007E-03  -3.55711129E-33
  -5.04000019E-03  -4.18837343E-33
  -5.02499985E-03  -4.66121199E-33
  -5.00999996E-03  -4.93610906E-33
  -4.99500008E-03  -4.97942199E-33
  -4.98000020E-03  -4.76565210E-33
  -4.96499985E-03  -4.27954661E-33
  -4.94999997E-03  -3.51792325E-33
  -4.93500009E-03  -2.49109569E-33
  -4.92000021E-03  -1.22378899E-33
  -4.90499986E-03   2.44552278E-34
  -4.88999998E-03   1.86014175E-33
  -4.87500010E-03   3.55596996E-33
  -4.86000022E-03   5.25368870E-33
  -4.84499987E-03   6.86624691E-33
  -4.82999999E-03   8.30123825E-33
  -4.81500011E-03   9.46486672E-33
  -4.80000023E-03   1.02664069E-32
  -4.78499988E-03   1.06230005E-32
  -4.77000000E-03   1.04645865E-32
  -4.75500012E-03   9.73874735E-33
  -4.73999977E-03   8.41522888E-33
  -4.72499989E-03   6.48988080E-33
  -4.71000001E-03   3.98776173E-33
  -4.69500013E-03   9.65182248E-34
  -4.67999978E-03  -2.48953522E-33
  -4.66499990E-03  -6.25675235E-33
  -4.65000002E-03  -1.01877840E-32
  -4.63500014E-03  -1.41088048E-32
  -4.61999979E-03  -1.78263792E-32
  -4.60499991E-03  -2.11345362E-32
  -4.59000003E-03  -2.38232018E-32
  -4.57500014E-03  -2.56877430E-32
  -4.55999980E-03  -2.65392976E-32
  -4.54499992E-03  -2.62154783E-32
  -4.53000003E-03  -2.45909804E-32
  -4.51500015E-03  -2.15876026E-32
  -4.49999981E-03  -1.71831384E-32
  -4.48499992E-03  -1.14185927E-32
  -4.47000004E-03  -4.40323286E-33
  -4.45500016E-03   3.68300380E-33
  -4.43999982E-03   1.25901367E-32
  -4.42499993E-03   2.20020701E-32
  -4.41000005E-03   3.15440206E-32
  -4.39500017E-03   4.07934038E-32
  -4.37999982E-03   4.92941234E-32
  -4.36499994E-03   5.65738512E-32
  -4.35000006E-03   6.21638793E-32
  -4.33500018E-03   6.56208672E-32
  -4.31999983E-03   6.65496958E-32
  -4.30499995E-03   6.46264812E-32
  -4.29000007E-03   5.96206856E-32
  -4.27500019E-03   5.14152883E-32
  -4.25999984E-03   4.00238400E-32
  -4.24499996E-03   2.56033660E-32
  -4.23000008E-03   8.46205102E-33
  -4.21500020E-03  -1.09390490E-32
  -4.19999985E-03  -3.19910905E-32
  -4.18499997E-03  -5.39495601E-32
  -4.17000009E-03  -7.59537211E-32
  -4.15500021E-03  -9.70532158E-32
  -4.13999986E-03  -1.16241122E-31
  -4.12499998E-03  -1.32492931E-31
  -4.11000010E-03  -1.44809854E-31
  -4.09500021E-03  -1.52265310E-31
  -4.07999987E-03  -1.54052567E-31
  -4.06499999E-03  -1.49531604E-31
  -4.05000011E-03  -1.38272942E-31
  -4.03500022E-03  -1.20096437E-31
  -4.01999988E-03  -9.51024594E-32
  -4.00500000E-03  -6.36938205E-32
  -3.99000011E-03  -2.65862615E-32
  -3.97500023E-03   1.51938111E-32
  -3.95999989E-03   6.03253474E-32
  -3.94500000E-03   1.07223105E-31
  -3.93000012E-03   1.54082424E-31
  -3.91499978E-03   1.98937326E-31
  -3.89999989E-03   2.39731000E-31
  -3.88500001E-03   2.74396305E-31
  -3.86999990E-03   3.00943598E-31
  -3.85500002E-03   3.17552934E-31
  -3.83999990E-03   3.22666475E-31
  -3.82500002E-03   3.15077719E-31
  -3.80999991E-03   2.94012437E-31
  -3.79500003E-03   2.59198127E-31
  -3.77999991E-03   2.10917188E-31
  -3.76500003E-03   1.50040428E-31
  -3.74999992E-03   7.80379784E-32
  -3.73500003E-03  -3.03495835E-33
  -3.71999992E-03  -9.05786223E-32
  -3.70500004E-03  -1.81516064E-31
  -3.68999992E-03  -2.72386327E-31
  -3.67500004E-03  -3.59461329E-31
  -3.65999993E-03  -4.38883464E-31
  -3.64500005E-03  -5.06818997E-31
  -3.62999993E-03  -5.59622580E-31
  -3.61500005E-03  -5.94005178E-31
  -3.59999994E-03  -6.07199914E-31
  -3.58500006E-03  -5.97117041E-31
  -3.56999994E-03  -5.62481758E-31
  -3.55500006E-03  -5.02946214E-31
  -3.53999995E-03  -4.19170095E-31
  -3.52500007E-03  -3.12863605E-31
  -3.50999995E-03  -1.86788262E-31
  -3.49500007E-03  -4.47124843E-32
  -3.47999996E-03   1.08678967E-31
  -3.46500007E-03   2.67921023E-31
  -3.44999996E-03   4.26947024E-31
  -3.43500008E-03   5.79305433E-31
  -3.41999996E-03   7.18406617E-31
  -3.40500008E-03   8.37792033E-31
  -3.38999997E-03   9.31414892E-31
  -3.37500009E-03   9.93920911E-31
  -3.35999997E-03   1.02091666E-30
  -3.34500009E-03   1.00921362E-30
  -3.32999998E-03   9.57034180E-31
  -3.31500010E-03   8.64170408E-31
  -3.29999998E-03   7.32084152E-31
  -3.28500010E-03   5.63940735E-31
  -3.26999999E-03   3.64571556E-31
  -3.25500011E-03   1.40361995E-31
  -3.23999999E-03  -1.00933576E-31
  -3.22500011E-03  -3.50446651E-31
  -3.21000000E-03  -5.98511788E-31
  -3.19500011E-03  -8.35034982E-31
  -3.18000000E-03  -1.04990115E-30
  -3.16499989E-03  -1.23340259E-30
  -3.15000000E-03  -1.37667316E-30
  -3.13499989E-03  -1.47210722E-30
  -3.12000001E-03  -1.51374398E-30
  -3.10499989E-03  -1.49760040E-30
  -3.09000001E-03  -1.42193129E-30
  -3.07499990E-03  -1.28740611E-30
  -3.06000002E-03  -1.09718555E-30
  -3.04499990E-03  -8.56893628E-31
  -3.03000002E-03  -5.74478477E-31
  -3.01499991E-03  -2.59964666E-31
  -3.00000003E-03   7.48978921E-32
  -2.98499991E-03   4.17076445E-31
  -2.97000003E-03   7.52774639E-31
  -2.95499992E-03   1.06800677E-30
  -2.94000003E-03   1.34920411E-30
  -2.92499992E-03   1.58382780E-30
  -2.91000004E-03   1.76095749E-30
  -2.89499993E-03   1.87183069E-30
  -2.88000004E-03   1.91030415E-30
  -2.86499993E-03   1.87321269E-30
  -2.85000005E-03   1.76060390E-30
  -2.83499993E-03   1.57583415E-30
  -2.82000005E-03   1.32551348E-30
  -2.80499994E-03   1.01929899E-30
  -2.79000006E-03   6.69535862E-31
  -2.77499994E-03   2.90762948E-31
  -2.76000006E-03  -1.00905281E-31
  -2.74499995E-03  -4.88489937E-31
  -2.73000007E-03  -8.54925098E-31
  -2.71499995E-03  -1.18386415E-30
  -2.70000007E-03  -1.46047829E-30
  -2.68499996E-03  -1.67220654E-30
  -2.67000007E-03  -1.80941983E-30
  -2.65499996E-03  -1.86596036E-30
  -2.64000008E-03  -1.83952829E-30
  -2.62499996E-03  -1.73188592E-30
  -2.61000008E-03  -1.54886578E-30
  -2.59499997E-03  -1.30017086E-30
  -2.58000009E-03  -9.98970834E-31
  -2.56499997E-03  -6.61305239E-31
  -2.55000009E-03  -3.05316720E-31
  -2.53499998E-03   4.96546799E-32
  -2.52000010E-03   3.84073525E-31
  -2.50499998E-03   6.79261197E-31
  -2.49000010E-03   9.18444769E-31
  -2.47499999E-03   1.08774708E-30
  -2.46000011E-03   1.17706378E-30
  -2.44499999E-03   1.18077542E-30
  -2.43000011E-03   1.09824744E-30
  -2.41500000E-03   9.34082418E-31
  -2.40000011E-03   6.98096567E-31
  -2.38500000E-03   4.05007269E-31
  -2.36999989E-03   7.38332821E-32
  -2.35500000E-03  -2.72976825E-31
  -2.33999989E-03  -6.10657748E-31
  -2.32500001E-03  -9.13435659E-31
  -2.30999989E-03  -1.15597259E-30
  -2.29500001E-03  -1.31487920E-30
  -2.27999990E-03  -1.37021809E-30
  -2.26500002E-03  -1.30691725E-30
  -2.24999990E-03  -1.11601189E-30
  -2.23500002E-03  -7.95637301E-31
  -2.21999991E-03  -3.51704407E-31
  -2.20500003E-03   2.01801206E-31
  -2.18999991E-03   8.42936278E-31
  -2.17500003E-03   1.54235626E-30
  -2.15999992E-03   2.26431189E-30